
     Program PWSCF v.5.1 starts on 21Apr2020 at 14:10:11 

     This program is part of the open-source Quantum ESPRESSO suite
     for quantum simulation of materials; please cite
         "P. Giannozzi et al., J. Phys.:Condens. Matter 21 395502 (2009);
          URL http://www.quantum-espresso.org", 
     in publications or presentations arising from this work. More details at
     http://www.quantum-espresso.org/quote

     Parallel version (MPI), running on     1 processors
     Waiting for input...
     Reading input from standard input

     Current dimensions of program PWSCF are:
     Max number of different atomic species (ntypx) = 10
     Max number of k-points (npk) =  40000
     Max angular momentum in pseudopotentials (lmaxx) =  3

     Atomic positions and unit cell read from directory:
     ../tmp/g.dos1.save/


     IMPORTANT: XC functional enforced from input :
     Exchange-correlation      = PBE ( 1  4  3  4 0)
     Any further DFT definition will be discarded
     Please, verify this is what you really want

               file C.pbe-rrkjus.UPF: wavefunction(s)  2S 2P renormalized

     Subspace diagonalization in iterative solution of the eigenvalue problem:
     a serial algorithm will be used


     G-vector sticks info
     --------------------
     sticks:   dense  smooth     PW     G-vecs:    dense   smooth      PW
     Sum         595     241     85                96043    24369    4587

     Generating pointlists ...
     new r_m :   0.2381 (alat units)  1.1104 (a.u.) for type    1


     bravais-lattice index     =           12
     lattice parameter (alat)  =       4.6627  a.u.
     unit-cell volume          =     711.6007 (a.u.)^3
     number of atoms/cell      =            4
     number of atomic types    =            1
     number of electrons       =        16.00
     number of Kohn-Sham states=           12
     kinetic-energy cutoff     =      40.0000  Ry
     charge density cutoff     =     400.0000  Ry
     Exchange-correlation      = PBE ( 1  4  3  4 0)

     celldm(1)=   4.662710  celldm(2)=   1.000000  celldm(3)=   8.105698
     celldm(4)=  -0.500000  celldm(5)=   0.000000  celldm(6)=   0.000000

     crystal axes: (cart. coord. in units of alat)
               a(1) = (   1.000000   0.000000   0.000000 )  
               a(2) = (  -0.500000   0.866025   0.000000 )  
               a(3) = (   0.000000   0.000000   8.105698 )  

     reciprocal axes: (cart. coord. in units 2 pi/alat)
               b(1) = (  1.000000  0.577350 -0.000000 )  
               b(2) = (  0.000000  1.154701  0.000000 )  
               b(3) = (  0.000000 -0.000000  0.123370 )  


     PseudoPot. # 1 for C  read from file:
     ../pseudo/C.pbe-rrkjus.UPF
     MD5 check sum: 00fb224312de0c5b6853bd333518df6f
     Pseudo is Ultrasoft, Zval =  4.0
     Generated by new atomic code, or converted to UPF format
     Using radial grid of  627 points,  4 beta functions with: 
                l(1) =   0
                l(2) =   0
                l(3) =   1
                l(4) =   1
     Q(r) pseudized with 0 coefficients 


     atomic species   valence    mass     pseudopotential
        C              4.00    12.01100     C ( 1.00)

     Starting magnetic structure 
     atomic species   magnetization
        C           -0.500

     No symmetry found
          (note:  3 additional sym.ops. were found but ignored
           their fractional translations are incommensurate with FFT grid)

                                    s                        frac. trans.

      isym =  1     identity                                     

 cryst.   s( 1) = (     1          0          0      )
                  (     0          1          0      )
                  (     0          0          1      )

 cart.    s( 1) = (  1.0000000  0.0000000  0.0000000 )
                  (  0.0000000  1.0000000  0.0000000 )
                  (  0.0000000  0.0000000  1.0000000 )


     point group C_1 (1)    
     there are  1 classes
     the character table:

       E    
A      1.00

     the symmetry operations in each class:
     E        1

   Cartesian axes

     site n.     atom                  positions (alat units)
         1           C   tau(   1) = (   0.0000000   0.0000000   2.0264246  )
         2           C   tau(   2) = (   0.0000000   0.5773284   2.0264246  )
         3           C   tau(   3) = (   0.2431709   0.0000000   3.4124990  )
         4           C   tau(   4) = (   0.2431709   0.5773284   3.4124990  )

   Crystallographic axes

     site n.     atom                  positions (cryst. coord.)
         1           C   tau(   1) = (  0.0000000  0.0000000  0.2500000  )
         2           C   tau(   2) = (  0.3333207  0.6666414  0.2500000  )
         3           C   tau(   3) = (  0.2431709  0.0000000  0.4210000  )
         4           C   tau(   4) = (  0.5764916  0.6666414  0.4210000  )

     number of k points=   148  Marzari-Vanderbilt smearing, width (Ry)=  0.0001
                       cart. coord. in units 2pi/alat
        k(    1) = (   0.0000000   0.0000000   0.0000000), wk =   0.0069444
        k(    2) = (   0.0000000   0.0962250   0.0000000), wk =   0.0138889
        k(    3) = (   0.0000000   0.1924501   0.0000000), wk =   0.0138889
        k(    4) = (   0.0000000   0.2886751   0.0000000), wk =   0.0138889
        k(    5) = (   0.0000000   0.3849002   0.0000000), wk =   0.0138889
        k(    6) = (   0.0000000   0.4811252   0.0000000), wk =   0.0138889
        k(    7) = (   0.0000000  -0.5773503   0.0000000), wk =   0.0069444
        k(    8) = (   0.0833333   0.1443376   0.0000000), wk =   0.0138889
        k(    9) = (   0.0833333   0.2405626   0.0000000), wk =   0.0138889
        k(   10) = (   0.0833333   0.3367877   0.0000000), wk =   0.0138889
        k(   11) = (   0.0833333   0.4330127   0.0000000), wk =   0.0138889
        k(   12) = (   0.0833333   0.5292377   0.0000000), wk =   0.0138889
        k(   13) = (   0.1666667   0.2886751   0.0000000), wk =   0.0138889
        k(   14) = (   0.1666667   0.3849002   0.0000000), wk =   0.0138889
        k(   15) = (   0.1666667   0.4811252   0.0000000), wk =   0.0138889
        k(   16) = (   0.1666667   0.5773503   0.0000000), wk =   0.0138889
        k(   17) = (   0.2500000   0.4330127   0.0000000), wk =   0.0138889
        k(   18) = (   0.2500000   0.5292377   0.0000000), wk =   0.0138889
        k(   19) = (   0.3333333   0.5773503   0.0000000), wk =   0.0138889
        k(   20) = (  -0.0833333   0.0481125   0.0000000), wk =   0.0138889
        k(   21) = (   0.0833333   0.0481125   0.0000000), wk =   0.0138889
        k(   22) = (  -0.1666667   0.0962250   0.0000000), wk =   0.0138889
        k(   23) = (   0.1666667   0.0962250   0.0000000), wk =   0.0138889
        k(   24) = (  -0.2500000   0.1443376   0.0000000), wk =   0.0138889
        k(   25) = (   0.2500000   0.1443376   0.0000000), wk =   0.0138889
        k(   26) = (  -0.3333333   0.1924501   0.0000000), wk =   0.0138889
        k(   27) = (   0.3333333   0.1924501   0.0000000), wk =   0.0138889
        k(   28) = (  -0.4166667   0.2405626   0.0000000), wk =   0.0138889
        k(   29) = (   0.4166667   0.2405626   0.0000000), wk =   0.0138889
        k(   30) = (   0.5000000  -0.2886751   0.0000000), wk =   0.0069444
        k(   31) = (  -0.5000000  -0.2886751   0.0000000), wk =   0.0069444
        k(   32) = (  -0.0833333   0.1443376   0.0000000), wk =   0.0138889
        k(   33) = (   0.1666667  -0.0000000   0.0000000), wk =   0.0138889
        k(   34) = (  -0.0833333   0.2405626   0.0000000), wk =   0.0138889
        k(   35) = (  -0.1666667   0.1924501   0.0000000), wk =   0.0138889
        k(   36) = (   0.2500000   0.0481125   0.0000000), wk =   0.0138889
        k(   37) = (  -0.1666667  -0.1924501   0.0000000), wk =   0.0138889
        k(   38) = (   0.2500000  -0.0481125   0.0000000), wk =   0.0138889
        k(   39) = (  -0.0833333   0.3367877   0.0000000), wk =   0.0138889
        k(   40) = (  -0.2500000   0.2405626   0.0000000), wk =   0.0138889
        k(   41) = (   0.3333333   0.0962250   0.0000000), wk =   0.0138889
        k(   42) = (  -0.2500000  -0.2405626   0.0000000), wk =   0.0138889
        k(   43) = (   0.3333333  -0.0962250   0.0000000), wk =   0.0138889
        k(   44) = (  -0.0833333   0.4330127   0.0000000), wk =   0.0138889
        k(   45) = (  -0.3333333   0.2886751   0.0000000), wk =   0.0138889
        k(   46) = (   0.4166667   0.1443376   0.0000000), wk =   0.0138889
        k(   47) = (  -0.3333333  -0.2886751   0.0000000), wk =   0.0138889
        k(   48) = (   0.4166667  -0.1443376   0.0000000), wk =   0.0138889
        k(   49) = (  -0.0833333   0.5292377   0.0000000), wk =   0.0138889
        k(   50) = (  -0.4166667   0.3367877   0.0000000), wk =   0.0138889
        k(   51) = (   0.5000000   0.1924501   0.0000000), wk =   0.0138889
        k(   52) = (  -0.4166667  -0.3367877   0.0000000), wk =   0.0138889
        k(   53) = (   0.5000000  -0.1924501   0.0000000), wk =   0.0138889
        k(   54) = (  -0.1666667   0.2886751   0.0000000), wk =   0.0138889
        k(   55) = (   0.3333333  -0.0000000   0.0000000), wk =   0.0138889
        k(   56) = (  -0.1666667   0.3849002   0.0000000), wk =   0.0138889
        k(   57) = (  -0.2500000   0.3367877   0.0000000), wk =   0.0138889
        k(   58) = (   0.4166667   0.0481125   0.0000000), wk =   0.0138889
        k(   59) = (  -0.2500000  -0.3367877   0.0000000), wk =   0.0138889
        k(   60) = (   0.4166667  -0.0481125   0.0000000), wk =   0.0138889
        k(   61) = (  -0.1666667   0.4811252   0.0000000), wk =   0.0138889
        k(   62) = (  -0.3333333   0.3849002   0.0000000), wk =   0.0138889
        k(   63) = (   0.5000000   0.0962250   0.0000000), wk =   0.0138889
        k(   64) = (  -0.3333333  -0.3849002   0.0000000), wk =   0.0138889
        k(   65) = (   0.5000000  -0.0962250   0.0000000), wk =   0.0138889
        k(   66) = (  -0.4166667   0.4330127   0.0000000), wk =   0.0138889
        k(   67) = (   0.5833333   0.1443376   0.0000000), wk =   0.0138889
        k(   68) = (  -0.2500000   0.4330127   0.0000000), wk =   0.0138889
        k(   69) = (   0.5000000  -0.0000000   0.0000000), wk =   0.0138889
        k(   70) = (  -0.2500000   0.5292377   0.0000000), wk =   0.0138889
        k(   71) = (  -0.3333333   0.4811252   0.0000000), wk =   0.0138889
        k(   72) = (   0.5833333   0.0481125   0.0000000), wk =   0.0138889
        k(   73) = (  -0.3333333  -0.4811252   0.0000000), wk =   0.0138889
        k(   74) = (   0.5833333  -0.0481125   0.0000000), wk =   0.0138889
        k(   75) = (   0.0000000   0.0000000   0.0000000), wk =   0.0069444
        k(   76) = (   0.0000000   0.0962250   0.0000000), wk =   0.0138889
        k(   77) = (   0.0000000   0.1924501   0.0000000), wk =   0.0138889
        k(   78) = (   0.0000000   0.2886751   0.0000000), wk =   0.0138889
        k(   79) = (   0.0000000   0.3849002   0.0000000), wk =   0.0138889
        k(   80) = (   0.0000000   0.4811252   0.0000000), wk =   0.0138889
        k(   81) = (   0.0000000  -0.5773503   0.0000000), wk =   0.0069444
        k(   82) = (   0.0833333   0.1443376   0.0000000), wk =   0.0138889
        k(   83) = (   0.0833333   0.2405626   0.0000000), wk =   0.0138889
        k(   84) = (   0.0833333   0.3367877   0.0000000), wk =   0.0138889
        k(   85) = (   0.0833333   0.4330127   0.0000000), wk =   0.0138889
        k(   86) = (   0.0833333   0.5292377   0.0000000), wk =   0.0138889
        k(   87) = (   0.1666667   0.2886751   0.0000000), wk =   0.0138889
        k(   88) = (   0.1666667   0.3849002   0.0000000), wk =   0.0138889
        k(   89) = (   0.1666667   0.4811252   0.0000000), wk =   0.0138889
        k(   90) = (   0.1666667   0.5773503   0.0000000), wk =   0.0138889
        k(   91) = (   0.2500000   0.4330127   0.0000000), wk =   0.0138889
        k(   92) = (   0.2500000   0.5292377   0.0000000), wk =   0.0138889
        k(   93) = (   0.3333333   0.5773503   0.0000000), wk =   0.0138889
        k(   94) = (  -0.0833333   0.0481125   0.0000000), wk =   0.0138889
        k(   95) = (   0.0833333   0.0481125   0.0000000), wk =   0.0138889
        k(   96) = (  -0.1666667   0.0962250   0.0000000), wk =   0.0138889
        k(   97) = (   0.1666667   0.0962250   0.0000000), wk =   0.0138889
        k(   98) = (  -0.2500000   0.1443376   0.0000000), wk =   0.0138889
        k(   99) = (   0.2500000   0.1443376   0.0000000), wk =   0.0138889
        k(  100) = (  -0.3333333   0.1924501   0.0000000), wk =   0.0138889
        k(  101) = (   0.3333333   0.1924501   0.0000000), wk =   0.0138889
        k(  102) = (  -0.4166667   0.2405626   0.0000000), wk =   0.0138889
        k(  103) = (   0.4166667   0.2405626   0.0000000), wk =   0.0138889
        k(  104) = (   0.5000000  -0.2886751   0.0000000), wk =   0.0069444
        k(  105) = (  -0.5000000  -0.2886751   0.0000000), wk =   0.0069444
        k(  106) = (  -0.0833333   0.1443376   0.0000000), wk =   0.0138889
        k(  107) = (   0.1666667  -0.0000000   0.0000000), wk =   0.0138889
        k(  108) = (  -0.0833333   0.2405626   0.0000000), wk =   0.0138889
        k(  109) = (  -0.1666667   0.1924501   0.0000000), wk =   0.0138889
        k(  110) = (   0.2500000   0.0481125   0.0000000), wk =   0.0138889
        k(  111) = (  -0.1666667  -0.1924501   0.0000000), wk =   0.0138889
        k(  112) = (   0.2500000  -0.0481125   0.0000000), wk =   0.0138889
        k(  113) = (  -0.0833333   0.3367877   0.0000000), wk =   0.0138889
        k(  114) = (  -0.2500000   0.2405626   0.0000000), wk =   0.0138889
        k(  115) = (   0.3333333   0.0962250   0.0000000), wk =   0.0138889
        k(  116) = (  -0.2500000  -0.2405626   0.0000000), wk =   0.0138889
        k(  117) = (   0.3333333  -0.0962250   0.0000000), wk =   0.0138889
        k(  118) = (  -0.0833333   0.4330127   0.0000000), wk =   0.0138889
        k(  119) = (  -0.3333333   0.2886751   0.0000000), wk =   0.0138889
        k(  120) = (   0.4166667   0.1443376   0.0000000), wk =   0.0138889
        k(  121) = (  -0.3333333  -0.2886751   0.0000000), wk =   0.0138889
        k(  122) = (   0.4166667  -0.1443376   0.0000000), wk =   0.0138889
        k(  123) = (  -0.0833333   0.5292377   0.0000000), wk =   0.0138889
        k(  124) = (  -0.4166667   0.3367877   0.0000000), wk =   0.0138889
        k(  125) = (   0.5000000   0.1924501   0.0000000), wk =   0.0138889
        k(  126) = (  -0.4166667  -0.3367877   0.0000000), wk =   0.0138889
        k(  127) = (   0.5000000  -0.1924501   0.0000000), wk =   0.0138889
        k(  128) = (  -0.1666667   0.2886751   0.0000000), wk =   0.0138889
        k(  129) = (   0.3333333  -0.0000000   0.0000000), wk =   0.0138889
        k(  130) = (  -0.1666667   0.3849002   0.0000000), wk =   0.0138889
        k(  131) = (  -0.2500000   0.3367877   0.0000000), wk =   0.0138889
        k(  132) = (   0.4166667   0.0481125   0.0000000), wk =   0.0138889
        k(  133) = (  -0.2500000  -0.3367877   0.0000000), wk =   0.0138889
        k(  134) = (   0.4166667  -0.0481125   0.0000000), wk =   0.0138889
        k(  135) = (  -0.1666667   0.4811252   0.0000000), wk =   0.0138889
        k(  136) = (  -0.3333333   0.3849002   0.0000000), wk =   0.0138889
        k(  137) = (   0.5000000   0.0962250   0.0000000), wk =   0.0138889
        k(  138) = (  -0.3333333  -0.3849002   0.0000000), wk =   0.0138889
        k(  139) = (   0.5000000  -0.0962250   0.0000000), wk =   0.0138889
        k(  140) = (  -0.4166667   0.4330127   0.0000000), wk =   0.0138889
        k(  141) = (   0.5833333   0.1443376   0.0000000), wk =   0.0138889
        k(  142) = (  -0.2500000   0.4330127   0.0000000), wk =   0.0138889
        k(  143) = (   0.5000000  -0.0000000   0.0000000), wk =   0.0138889
        k(  144) = (  -0.2500000   0.5292377   0.0000000), wk =   0.0138889
        k(  145) = (  -0.3333333   0.4811252   0.0000000), wk =   0.0138889
        k(  146) = (   0.5833333   0.0481125   0.0000000), wk =   0.0138889
        k(  147) = (  -0.3333333  -0.4811252   0.0000000), wk =   0.0138889
        k(  148) = (   0.5833333  -0.0481125   0.0000000), wk =   0.0138889

                       cryst. coord.
        k(    1) = (   0.0000000   0.0000000   0.0000000), wk =   0.0069444
        k(    2) = (   0.0000000   0.0833333   0.0000000), wk =   0.0138889
        k(    3) = (   0.0000000   0.1666667   0.0000000), wk =   0.0138889
        k(    4) = (   0.0000000   0.2500000   0.0000000), wk =   0.0138889
        k(    5) = (   0.0000000   0.3333333   0.0000000), wk =   0.0138889
        k(    6) = (   0.0000000   0.4166667   0.0000000), wk =   0.0138889
        k(    7) = (   0.0000000  -0.5000000   0.0000000), wk =   0.0069444
        k(    8) = (   0.0833333   0.0833333   0.0000000), wk =   0.0138889
        k(    9) = (   0.0833333   0.1666667   0.0000000), wk =   0.0138889
        k(   10) = (   0.0833333   0.2500000   0.0000000), wk =   0.0138889
        k(   11) = (   0.0833333   0.3333333   0.0000000), wk =   0.0138889
        k(   12) = (   0.0833333   0.4166667   0.0000000), wk =   0.0138889
        k(   13) = (   0.1666667   0.1666667   0.0000000), wk =   0.0138889
        k(   14) = (   0.1666667   0.2500000   0.0000000), wk =   0.0138889
        k(   15) = (   0.1666667   0.3333333   0.0000000), wk =   0.0138889
        k(   16) = (   0.1666667   0.4166667   0.0000000), wk =   0.0138889
        k(   17) = (   0.2500000   0.2500000   0.0000000), wk =   0.0138889
        k(   18) = (   0.2500000   0.3333333   0.0000000), wk =   0.0138889
        k(   19) = (   0.3333333   0.3333333   0.0000000), wk =   0.0138889
        k(   20) = (  -0.0833333   0.0833333   0.0000000), wk =   0.0138889
        k(   21) = (   0.0833333   0.0000000   0.0000000), wk =   0.0138889
        k(   22) = (  -0.1666667   0.1666667   0.0000000), wk =   0.0138889
        k(   23) = (   0.1666667   0.0000000   0.0000000), wk =   0.0138889
        k(   24) = (  -0.2500000   0.2500000   0.0000000), wk =   0.0138889
        k(   25) = (   0.2500000   0.0000000   0.0000000), wk =   0.0138889
        k(   26) = (  -0.3333333   0.3333333   0.0000000), wk =   0.0138889
        k(   27) = (   0.3333333   0.0000000   0.0000000), wk =   0.0138889
        k(   28) = (  -0.4166667   0.4166667   0.0000000), wk =   0.0138889
        k(   29) = (   0.4166667   0.0000000   0.0000000), wk =   0.0138889
        k(   30) = (   0.5000000  -0.5000000   0.0000000), wk =   0.0069444
        k(   31) = (  -0.5000000   0.0000000   0.0000000), wk =   0.0069444
        k(   32) = (  -0.0833333   0.1666667   0.0000000), wk =   0.0138889
        k(   33) = (   0.1666667  -0.0833333   0.0000000), wk =   0.0138889
        k(   34) = (  -0.0833333   0.2500000   0.0000000), wk =   0.0138889
        k(   35) = (  -0.1666667   0.2500000   0.0000000), wk =   0.0138889
        k(   36) = (   0.2500000  -0.0833333   0.0000000), wk =   0.0138889
        k(   37) = (  -0.1666667  -0.0833333   0.0000000), wk =   0.0138889
        k(   38) = (   0.2500000  -0.1666667   0.0000000), wk =   0.0138889
        k(   39) = (  -0.0833333   0.3333333   0.0000000), wk =   0.0138889
        k(   40) = (  -0.2500000   0.3333333   0.0000000), wk =   0.0138889
        k(   41) = (   0.3333333  -0.0833333   0.0000000), wk =   0.0138889
        k(   42) = (  -0.2500000  -0.0833333   0.0000000), wk =   0.0138889
        k(   43) = (   0.3333333  -0.2500000   0.0000000), wk =   0.0138889
        k(   44) = (  -0.0833333   0.4166667   0.0000000), wk =   0.0138889
        k(   45) = (  -0.3333333   0.4166667   0.0000000), wk =   0.0138889
        k(   46) = (   0.4166667  -0.0833333   0.0000000), wk =   0.0138889
        k(   47) = (  -0.3333333  -0.0833333   0.0000000), wk =   0.0138889
        k(   48) = (   0.4166667  -0.3333333   0.0000000), wk =   0.0138889
        k(   49) = (  -0.0833333   0.5000000   0.0000000), wk =   0.0138889
        k(   50) = (  -0.4166667   0.5000000   0.0000000), wk =   0.0138889
        k(   51) = (   0.5000000  -0.0833333   0.0000000), wk =   0.0138889
        k(   52) = (  -0.4166667  -0.0833333   0.0000000), wk =   0.0138889
        k(   53) = (   0.5000000  -0.4166667   0.0000000), wk =   0.0138889
        k(   54) = (  -0.1666667   0.3333333   0.0000000), wk =   0.0138889
        k(   55) = (   0.3333333  -0.1666667   0.0000000), wk =   0.0138889
        k(   56) = (  -0.1666667   0.4166667   0.0000000), wk =   0.0138889
        k(   57) = (  -0.2500000   0.4166667   0.0000000), wk =   0.0138889
        k(   58) = (   0.4166667  -0.1666667   0.0000000), wk =   0.0138889
        k(   59) = (  -0.2500000  -0.1666667   0.0000000), wk =   0.0138889
        k(   60) = (   0.4166667  -0.2500000   0.0000000), wk =   0.0138889
        k(   61) = (  -0.1666667   0.5000000   0.0000000), wk =   0.0138889
        k(   62) = (  -0.3333333   0.5000000   0.0000000), wk =   0.0138889
        k(   63) = (   0.5000000  -0.1666667   0.0000000), wk =   0.0138889
        k(   64) = (  -0.3333333  -0.1666667   0.0000000), wk =   0.0138889
        k(   65) = (   0.5000000  -0.3333333   0.0000000), wk =   0.0138889
        k(   66) = (  -0.4166667   0.5833333   0.0000000), wk =   0.0138889
        k(   67) = (   0.5833333  -0.1666667   0.0000000), wk =   0.0138889
        k(   68) = (  -0.2500000   0.5000000   0.0000000), wk =   0.0138889
        k(   69) = (   0.5000000  -0.2500000   0.0000000), wk =   0.0138889
        k(   70) = (  -0.2500000   0.5833333   0.0000000), wk =   0.0138889
        k(   71) = (  -0.3333333   0.5833333   0.0000000), wk =   0.0138889
        k(   72) = (   0.5833333  -0.2500000   0.0000000), wk =   0.0138889
        k(   73) = (  -0.3333333  -0.2500000   0.0000000), wk =   0.0138889
        k(   74) = (   0.5833333  -0.3333333   0.0000000), wk =   0.0138889
        k(   75) = (   0.0000000   0.0000000   0.0000000), wk =   0.0069444
        k(   76) = (   0.0000000   0.0833333   0.0000000), wk =   0.0138889
        k(   77) = (   0.0000000   0.1666667   0.0000000), wk =   0.0138889
        k(   78) = (   0.0000000   0.2500000   0.0000000), wk =   0.0138889
        k(   79) = (   0.0000000   0.3333333   0.0000000), wk =   0.0138889
        k(   80) = (   0.0000000   0.4166667   0.0000000), wk =   0.0138889
        k(   81) = (   0.0000000  -0.5000000   0.0000000), wk =   0.0069444
        k(   82) = (   0.0833333   0.0833333   0.0000000), wk =   0.0138889
        k(   83) = (   0.0833333   0.1666667   0.0000000), wk =   0.0138889
        k(   84) = (   0.0833333   0.2500000   0.0000000), wk =   0.0138889
        k(   85) = (   0.0833333   0.3333333   0.0000000), wk =   0.0138889
        k(   86) = (   0.0833333   0.4166667   0.0000000), wk =   0.0138889
        k(   87) = (   0.1666667   0.1666667   0.0000000), wk =   0.0138889
        k(   88) = (   0.1666667   0.2500000   0.0000000), wk =   0.0138889
        k(   89) = (   0.1666667   0.3333333   0.0000000), wk =   0.0138889
        k(   90) = (   0.1666667   0.4166667   0.0000000), wk =   0.0138889
        k(   91) = (   0.2500000   0.2500000   0.0000000), wk =   0.0138889
        k(   92) = (   0.2500000   0.3333333   0.0000000), wk =   0.0138889
        k(   93) = (   0.3333333   0.3333333   0.0000000), wk =   0.0138889
        k(   94) = (  -0.0833333   0.0833333   0.0000000), wk =   0.0138889
        k(   95) = (   0.0833333   0.0000000   0.0000000), wk =   0.0138889
        k(   96) = (  -0.1666667   0.1666667   0.0000000), wk =   0.0138889
        k(   97) = (   0.1666667   0.0000000   0.0000000), wk =   0.0138889
        k(   98) = (  -0.2500000   0.2500000   0.0000000), wk =   0.0138889
        k(   99) = (   0.2500000   0.0000000   0.0000000), wk =   0.0138889
        k(  100) = (  -0.3333333   0.3333333   0.0000000), wk =   0.0138889
        k(  101) = (   0.3333333   0.0000000   0.0000000), wk =   0.0138889
        k(  102) = (  -0.4166667   0.4166667   0.0000000), wk =   0.0138889
        k(  103) = (   0.4166667   0.0000000   0.0000000), wk =   0.0138889
        k(  104) = (   0.5000000  -0.5000000   0.0000000), wk =   0.0069444
        k(  105) = (  -0.5000000   0.0000000   0.0000000), wk =   0.0069444
        k(  106) = (  -0.0833333   0.1666667   0.0000000), wk =   0.0138889
        k(  107) = (   0.1666667  -0.0833333   0.0000000), wk =   0.0138889
        k(  108) = (  -0.0833333   0.2500000   0.0000000), wk =   0.0138889
        k(  109) = (  -0.1666667   0.2500000   0.0000000), wk =   0.0138889
        k(  110) = (   0.2500000  -0.0833333   0.0000000), wk =   0.0138889
        k(  111) = (  -0.1666667  -0.0833333   0.0000000), wk =   0.0138889
        k(  112) = (   0.2500000  -0.1666667   0.0000000), wk =   0.0138889
        k(  113) = (  -0.0833333   0.3333333   0.0000000), wk =   0.0138889
        k(  114) = (  -0.2500000   0.3333333   0.0000000), wk =   0.0138889
        k(  115) = (   0.3333333  -0.0833333   0.0000000), wk =   0.0138889
        k(  116) = (  -0.2500000  -0.0833333   0.0000000), wk =   0.0138889
        k(  117) = (   0.3333333  -0.2500000   0.0000000), wk =   0.0138889
        k(  118) = (  -0.0833333   0.4166667   0.0000000), wk =   0.0138889
        k(  119) = (  -0.3333333   0.4166667   0.0000000), wk =   0.0138889
        k(  120) = (   0.4166667  -0.0833333   0.0000000), wk =   0.0138889
        k(  121) = (  -0.3333333  -0.0833333   0.0000000), wk =   0.0138889
        k(  122) = (   0.4166667  -0.3333333   0.0000000), wk =   0.0138889
        k(  123) = (  -0.0833333   0.5000000   0.0000000), wk =   0.0138889
        k(  124) = (  -0.4166667   0.5000000   0.0000000), wk =   0.0138889
        k(  125) = (   0.5000000  -0.0833333   0.0000000), wk =   0.0138889
        k(  126) = (  -0.4166667  -0.0833333   0.0000000), wk =   0.0138889
        k(  127) = (   0.5000000  -0.4166667   0.0000000), wk =   0.0138889
        k(  128) = (  -0.1666667   0.3333333   0.0000000), wk =   0.0138889
        k(  129) = (   0.3333333  -0.1666667   0.0000000), wk =   0.0138889
        k(  130) = (  -0.1666667   0.4166667   0.0000000), wk =   0.0138889
        k(  131) = (  -0.2500000   0.4166667   0.0000000), wk =   0.0138889
        k(  132) = (   0.4166667  -0.1666667   0.0000000), wk =   0.0138889
        k(  133) = (  -0.2500000  -0.1666667   0.0000000), wk =   0.0138889
        k(  134) = (   0.4166667  -0.2500000   0.0000000), wk =   0.0138889
        k(  135) = (  -0.1666667   0.5000000   0.0000000), wk =   0.0138889
        k(  136) = (  -0.3333333   0.5000000   0.0000000), wk =   0.0138889
        k(  137) = (   0.5000000  -0.1666667   0.0000000), wk =   0.0138889
        k(  138) = (  -0.3333333  -0.1666667   0.0000000), wk =   0.0138889
        k(  139) = (   0.5000000  -0.3333333   0.0000000), wk =   0.0138889
        k(  140) = (  -0.4166667   0.5833333   0.0000000), wk =   0.0138889
        k(  141) = (   0.5833333  -0.1666667   0.0000000), wk =   0.0138889
        k(  142) = (  -0.2500000   0.5000000   0.0000000), wk =   0.0138889
        k(  143) = (   0.5000000  -0.2500000   0.0000000), wk =   0.0138889
        k(  144) = (  -0.2500000   0.5833333   0.0000000), wk =   0.0138889
        k(  145) = (  -0.3333333   0.5833333   0.0000000), wk =   0.0138889
        k(  146) = (   0.5833333  -0.2500000   0.0000000), wk =   0.0138889
        k(  147) = (  -0.3333333  -0.2500000   0.0000000), wk =   0.0138889
        k(  148) = (   0.5833333  -0.3333333   0.0000000), wk =   0.0138889

     Dense  grid:    96043 G-vectors     FFT dimensions: (  30,  30, 243)

     Smooth grid:    24369 G-vectors     FFT dimensions: (  20,  20, 160)

     Largest allocated arrays     est. size (Mb)     dimensions
        Kohn-Sham Wavefunctions         0.56 Mb     (    3054,   12)
        NL pseudopotentials             1.49 Mb     (    3054,   32)
        Each V/rho on FFT grid          6.67 Mb     (  218700,   2)
        Each G-vector array             0.73 Mb     (   96043)
        G-vector shells                 0.04 Mb     (    4763)
     Largest temporary arrays     est. size (Mb)     dimensions
        Auxiliary wavefunctions         2.24 Mb     (    3054,   48)
        Each subspace H/S matrix        0.04 Mb     (      48,   48)
        Each <psi_i|beta_j> matrix      0.01 Mb     (      32,   12)

     The potential is recalculated from file :
     ../tmp/g.dos1.save/charge-density.dat


     negative rho (up, down):  7.575E-07 7.575E-07
     Starting wfc are   16 randomized atomic wfcs

     Band Structure Calculation
     Davidson diagonalization with overlap

     Computing kpt #:     1
     total cpu time spent up to now is        2.7 secs

     Computing kpt #:     2
     total cpu time spent up to now is        3.5 secs

     Computing kpt #:     3
     total cpu time spent up to now is        4.3 secs

     Computing kpt #:     4
     total cpu time spent up to now is        5.4 secs

     Computing kpt #:     5
     total cpu time spent up to now is        6.2 secs

     Computing kpt #:     6
     total cpu time spent up to now is        6.8 secs

     Computing kpt #:     7
     total cpu time spent up to now is        7.3 secs

     Computing kpt #:     8
     total cpu time spent up to now is        8.1 secs

     Computing kpt #:     9
     total cpu time spent up to now is        9.1 secs

     Computing kpt #:    10
     total cpu time spent up to now is        9.9 secs

     Computing kpt #:    11
     total cpu time spent up to now is       10.7 secs

     Computing kpt #:    12
     total cpu time spent up to now is       11.3 secs

     Computing kpt #:    13
     total cpu time spent up to now is       12.0 secs

     Computing kpt #:    14
     total cpu time spent up to now is       12.7 secs

     Computing kpt #:    15
     total cpu time spent up to now is       13.6 secs

     Computing kpt #:    16
     total cpu time spent up to now is       14.2 secs

     Computing kpt #:    17
     total cpu time spent up to now is       15.0 secs

     Computing kpt #:    18
     total cpu time spent up to now is       16.0 secs

     Computing kpt #:    19
     total cpu time spent up to now is       16.7 secs

     Computing kpt #:    20
     total cpu time spent up to now is       17.4 secs

     Computing kpt #:    21
     total cpu time spent up to now is       18.2 secs

     Computing kpt #:    22
     total cpu time spent up to now is       19.0 secs

     Computing kpt #:    23
     total cpu time spent up to now is       19.8 secs

     Computing kpt #:    24
     total cpu time spent up to now is       20.8 secs

     Computing kpt #:    25
     total cpu time spent up to now is       21.9 secs

     Computing kpt #:    26
     total cpu time spent up to now is       22.9 secs

     Computing kpt #:    27
     total cpu time spent up to now is       23.8 secs

     Computing kpt #:    28
     total cpu time spent up to now is       24.4 secs

     Computing kpt #:    29
     total cpu time spent up to now is       25.1 secs

     Computing kpt #:    30
     total cpu time spent up to now is       25.7 secs

     Computing kpt #:    31
     total cpu time spent up to now is       26.2 secs

     Computing kpt #:    32
     total cpu time spent up to now is       27.1 secs

     Computing kpt #:    33
     total cpu time spent up to now is       27.9 secs

     Computing kpt #:    34
     total cpu time spent up to now is       28.9 secs

     Computing kpt #:    35
     total cpu time spent up to now is       29.9 secs

     Computing kpt #:    36
     total cpu time spent up to now is       31.0 secs

     Computing kpt #:    37
     total cpu time spent up to now is       32.0 secs

     Computing kpt #:    38
     total cpu time spent up to now is       33.0 secs

     Computing kpt #:    39
     total cpu time spent up to now is       33.8 secs

     Computing kpt #:    40
     total cpu time spent up to now is       34.5 secs

     Computing kpt #:    41
     total cpu time spent up to now is       35.3 secs

     Computing kpt #:    42
     total cpu time spent up to now is       36.1 secs

     Computing kpt #:    43
     total cpu time spent up to now is       36.9 secs

     Computing kpt #:    44
     total cpu time spent up to now is       37.7 secs

     Computing kpt #:    45
     total cpu time spent up to now is       38.6 secs

     Computing kpt #:    46
     total cpu time spent up to now is       39.5 secs

     Computing kpt #:    47
     total cpu time spent up to now is       40.4 secs

     Computing kpt #:    48
     total cpu time spent up to now is       41.3 secs

     Computing kpt #:    49
     total cpu time spent up to now is       41.9 secs

     Computing kpt #:    50
     total cpu time spent up to now is       42.4 secs

     Computing kpt #:    51
     total cpu time spent up to now is       43.0 secs

     Computing kpt #:    52
     total cpu time spent up to now is       43.6 secs

     Computing kpt #:    53
     total cpu time spent up to now is       44.2 secs

     Computing kpt #:    54
     total cpu time spent up to now is       45.0 secs

     Computing kpt #:    55
     total cpu time spent up to now is       45.8 secs

     Computing kpt #:    56
     total cpu time spent up to now is       46.5 secs

     Computing kpt #:    57
     total cpu time spent up to now is       47.3 secs

     Computing kpt #:    58
     total cpu time spent up to now is       48.0 secs

     Computing kpt #:    59
     total cpu time spent up to now is       48.7 secs

     Computing kpt #:    60
     total cpu time spent up to now is       49.5 secs

     Computing kpt #:    61
     total cpu time spent up to now is       50.4 secs

     Computing kpt #:    62
     total cpu time spent up to now is       51.7 secs

     Computing kpt #:    63
     total cpu time spent up to now is       52.6 secs

     Computing kpt #:    64
     total cpu time spent up to now is       53.7 secs

     Computing kpt #:    65
     total cpu time spent up to now is       54.6 secs

     Computing kpt #:    66
     total cpu time spent up to now is       55.2 secs

     Computing kpt #:    67
     total cpu time spent up to now is       56.0 secs

     Computing kpt #:    68
     total cpu time spent up to now is       56.8 secs

     Computing kpt #:    69
     total cpu time spent up to now is       57.5 secs

     Computing kpt #:    70
     total cpu time spent up to now is       58.6 secs

     Computing kpt #:    71
     total cpu time spent up to now is       59.7 secs

     Computing kpt #:    72
     total cpu time spent up to now is       60.6 secs

     Computing kpt #:    73
     total cpu time spent up to now is       61.6 secs

     Computing kpt #:    74
     total cpu time spent up to now is       62.5 secs

     Computing kpt #:    75
     total cpu time spent up to now is       63.3 secs

     Computing kpt #:    76
     total cpu time spent up to now is       64.1 secs

     Computing kpt #:    77
     total cpu time spent up to now is       64.9 secs

     Computing kpt #:    78
     total cpu time spent up to now is       65.7 secs

     Computing kpt #:    79
     total cpu time spent up to now is       66.6 secs

     Computing kpt #:    80
     total cpu time spent up to now is       67.2 secs

     Computing kpt #:    81
     total cpu time spent up to now is       67.8 secs

     Computing kpt #:    82
     total cpu time spent up to now is       68.5 secs

     Computing kpt #:    83
     total cpu time spent up to now is       69.5 secs

     Computing kpt #:    84
     total cpu time spent up to now is       70.3 secs

     Computing kpt #:    85
     total cpu time spent up to now is       71.3 secs

     Computing kpt #:    86
     total cpu time spent up to now is       71.8 secs

     Computing kpt #:    87
     total cpu time spent up to now is       72.6 secs

     Computing kpt #:    88
     total cpu time spent up to now is       73.4 secs

     Computing kpt #:    89
     total cpu time spent up to now is       74.2 secs

     Computing kpt #:    90
     total cpu time spent up to now is       74.8 secs

     Computing kpt #:    91
     total cpu time spent up to now is       75.6 secs

     Computing kpt #:    92
     total cpu time spent up to now is       76.6 secs

     Computing kpt #:    93
     total cpu time spent up to now is       77.3 secs

     Computing kpt #:    94
     total cpu time spent up to now is       78.1 secs

     Computing kpt #:    95
     total cpu time spent up to now is       78.8 secs

     Computing kpt #:    96
     total cpu time spent up to now is       79.7 secs

     Computing kpt #:    97
     total cpu time spent up to now is       80.5 secs

     Computing kpt #:    98
     total cpu time spent up to now is       81.5 secs

     Computing kpt #:    99
     total cpu time spent up to now is       82.4 secs

     Computing kpt #:   100
     total cpu time spent up to now is       83.4 secs

     Computing kpt #:   101
     total cpu time spent up to now is       84.2 secs

     Computing kpt #:   102
     total cpu time spent up to now is       84.9 secs

     Computing kpt #:   103
     total cpu time spent up to now is       85.6 secs

     Computing kpt #:   104
     total cpu time spent up to now is       86.2 secs

     Computing kpt #:   105
     total cpu time spent up to now is       86.7 secs

     Computing kpt #:   106
     total cpu time spent up to now is       87.5 secs

     Computing kpt #:   107
     total cpu time spent up to now is       88.3 secs

     Computing kpt #:   108
     total cpu time spent up to now is       89.3 secs

     Computing kpt #:   109
     total cpu time spent up to now is       90.2 secs

     Computing kpt #:   110
     total cpu time spent up to now is       91.2 secs

     Computing kpt #:   111
     total cpu time spent up to now is       92.1 secs

     Computing kpt #:   112
     total cpu time spent up to now is       93.1 secs

     Computing kpt #:   113
     total cpu time spent up to now is       93.8 secs

     Computing kpt #:   114
     total cpu time spent up to now is       94.6 secs

     Computing kpt #:   115
     total cpu time spent up to now is       95.4 secs

     Computing kpt #:   116
     total cpu time spent up to now is       96.1 secs

     Computing kpt #:   117
     total cpu time spent up to now is       96.9 secs

     Computing kpt #:   118
     total cpu time spent up to now is       97.7 secs

     Computing kpt #:   119
     total cpu time spent up to now is       98.6 secs

     Computing kpt #:   120
     total cpu time spent up to now is       99.5 secs

     Computing kpt #:   121
     total cpu time spent up to now is      100.5 secs

     Computing kpt #:   122
     total cpu time spent up to now is      101.4 secs

     Computing kpt #:   123
     total cpu time spent up to now is      101.9 secs

     Computing kpt #:   124
     total cpu time spent up to now is      102.5 secs

     Computing kpt #:   125
     total cpu time spent up to now is      103.1 secs

     Computing kpt #:   126
     total cpu time spent up to now is      103.7 secs

     Computing kpt #:   127
     total cpu time spent up to now is      104.2 secs

     Computing kpt #:   128
     total cpu time spent up to now is      105.0 secs

     Computing kpt #:   129
     total cpu time spent up to now is      105.8 secs

     Computing kpt #:   130
     total cpu time spent up to now is      106.5 secs

     Computing kpt #:   131
     total cpu time spent up to now is      107.3 secs

     Computing kpt #:   132
     total cpu time spent up to now is      108.1 secs

     Computing kpt #:   133
     total cpu time spent up to now is      108.8 secs

     Computing kpt #:   134
     total cpu time spent up to now is      109.6 secs

     Computing kpt #:   135
     total cpu time spent up to now is      110.5 secs

     Computing kpt #:   136
     total cpu time spent up to now is      111.8 secs

     Computing kpt #:   137
     total cpu time spent up to now is      112.7 secs

     Computing kpt #:   138
     total cpu time spent up to now is      113.7 secs

     Computing kpt #:   139
     total cpu time spent up to now is      114.6 secs

     Computing kpt #:   140
     total cpu time spent up to now is      115.2 secs

     Computing kpt #:   141
     total cpu time spent up to now is      115.9 secs

     Computing kpt #:   142
     total cpu time spent up to now is      116.6 secs

     Computing kpt #:   143
     total cpu time spent up to now is      117.3 secs

     Computing kpt #:   144
     total cpu time spent up to now is      118.3 secs

     Computing kpt #:   145
     total cpu time spent up to now is      119.4 secs

     Computing kpt #:   146
     total cpu time spent up to now is      120.2 secs

     Computing kpt #:   147
     total cpu time spent up to now is      121.3 secs

     Computing kpt #:   148
     total cpu time spent up to now is      122.2 secs

     ethr =  6.25E-13,  avg # of iterations = 39.0

     total cpu time spent up to now is      122.2 secs

     End of band structure calculation

 ------ SPIN UP ------------


          k = 0.0000 0.0000 0.0000 (  3053 PWs)   bands (ev):

   -20.0338 -19.9034  -8.5257  -7.6388  -3.5698  -3.5632  -3.5624  -3.5595
     2.9119   3.3006   4.0215   5.2097

     occupation numbers 
     1.0000   1.0000   1.0000   1.0000   1.0000   1.0000   1.0000   1.0000
     0.0000   0.0000   0.0000   0.0000

          k = 0.0000 0.0962 0.0000 (  3052 PWs)   bands (ev):

   -19.8696 -19.7405  -8.3279  -7.4464  -4.2184  -4.2027  -3.8997  -3.8990
     3.1326   3.5238   4.2471   5.4336

     occupation numbers 
     1.0000   1.0000   1.0000   1.0000   1.0000   1.0000   1.0000   1.0000
     0.0000   0.0000   0.0000   0.0000

          k = 0.0000 0.1925 0.0000 (  3050 PWs)   bands (ev):

   -19.3788 -19.2536  -7.7396  -6.8747  -5.8518  -5.8234  -4.6880  -4.6873
     3.7945   4.1924   4.9239   6.1043

     occupation numbers 
     1.0000   1.0000   1.0000   1.0000   1.0000   1.0000   1.0000   1.0000
     0.0000   0.0000   0.0000   0.0000

          k = 0.0000 0.2887 0.0000 (  3048 PWs)   bands (ev):

   -18.5674 -18.4484  -7.9461  -7.9030  -6.7787  -5.9438  -5.5635  -5.5627
     4.8933   5.2958   6.0489   6.5150

     occupation numbers 
     1.0000   1.0000   1.0000   1.0000   1.0000   1.0000   1.0000   1.0000
     0.0000   0.0000   0.0000   0.0000

          k = 0.0000 0.3849 0.0000 (  3042 PWs)   bands (ev):

   -17.4476 -17.3370 -10.1465 -10.0888  -6.2935  -6.2926  -5.4935  -4.7062
     4.1450   4.6512   6.4107   6.8605

     occupation numbers 
     1.0000   1.0000   1.0000   1.0000   1.0000   1.0000   1.0000   1.0000
     0.0000   0.0000   0.0000   0.0000

          k = 0.0000 0.4811 0.0000 (  3054 PWs)   bands (ev):

   -16.0513 -15.9502 -12.2449 -12.1739  -6.7644  -6.7633  -4.0423  -3.3289
     1.9449   2.6035   6.9482   6.9635

     occupation numbers 
     1.0000   1.0000   1.0000   1.0000   1.0000   1.0000   1.0000   1.0000
     0.0000   0.0000   0.0000   0.0000

          k = 0.0000-0.5774 0.0000 (  3052 PWs)   bands (ev):

   -14.7902 -14.6936 -13.7479 -13.6709  -6.9261  -6.9250  -3.1686  -2.5244
     0.8064   1.5600   6.8739   6.8813

     occupation numbers 
     1.0000   1.0000   1.0000   1.0000   1.0000   1.0000   1.0000   1.0000
     0.0000   0.0000   0.0000   0.0000

          k = 0.0833 0.1443 0.0000 (  3051 PWs)   bands (ev):

   -19.5421 -19.4156  -7.9346  -7.0643  -5.2467  -5.2278  -4.5779  -4.5683
     3.5742   3.9699   4.6985   5.8813

     occupation numbers 
     1.0000   1.0000   1.0000   1.0000   1.0000   1.0000   1.0000   1.0000
     0.0000   0.0000   0.0000   0.0000

          k = 0.0833 0.2406 0.0000 (  3045 PWs)   bands (ev):

   -18.8910 -18.7696  -7.1591  -6.9533  -6.9212  -6.3118  -5.5725  -5.5583
     4.4560   4.8592   5.6009   6.7737

     occupation numbers 
     1.0000   1.0000   1.0000   1.0000   1.0000   1.0000   1.0000   1.0000
     0.0000   0.0000   0.0000   0.0000

          k = 0.0833 0.3368 0.0000 (  3033 PWs)   bands (ev):

   -17.9252 -17.8111  -9.0241  -8.9757  -6.4566  -6.4381  -6.0294  -5.2210
     5.2131   5.5893   5.7739   6.2168

     occupation numbers 
     1.0000   1.0000   1.0000   1.0000   1.0000   1.0000   1.0000   1.0000
     0.0000   0.0000   0.0000   0.0000

          k = 0.0833 0.4330 0.0000 (  3041 PWs)   bands (ev):

   -16.6640 -16.5590 -11.1453 -11.0820  -7.0895  -7.0690  -4.6280  -3.8788
     2.9416   3.4851   7.4624   7.7464

     occupation numbers 
     1.0000   1.0000   1.0000   1.0000   1.0000   1.0000   1.0000   1.0000
     0.0000   0.0000   0.0000   0.0000

          k = 0.0833 0.5292 0.0000 (  3043 PWs)   bands (ev):

   -15.1848 -15.0888 -13.0850 -13.0098  -7.4169  -7.3955  -3.2849  -2.6195
     1.1155   1.7950   7.5846   7.6332

     occupation numbers 
     1.0000   1.0000   1.0000   1.0000   1.0000   1.0000   1.0000   1.0000
     0.0000   0.0000   0.0000   0.0000

          k = 0.1667 0.2887 0.0000 (  3039 PWs)   bands (ev):

   -18.0855 -17.9703  -8.2776  -8.2444  -6.9309  -6.9084  -6.2099  -5.3962
     5.5551   5.7017   5.9646   6.0017

     occupation numbers 
     1.0000   1.0000   1.0000   1.0000   1.0000   1.0000   1.0000   1.0000
     0.0000   0.0000   0.0000   0.0000

          k = 0.1667 0.3849 0.0000 (  3045 PWs)   bands (ev):

   -16.9767 -16.8698 -10.0051  -9.9558  -7.9863  -7.9546  -4.9393  -4.1746
     3.7235   4.1035   7.0802   7.4946

     occupation numbers 
     1.0000   1.0000   1.0000   1.0000   1.0000   1.0000   1.0000   1.0000
     0.0000   0.0000   0.0000   0.0000

          k = 0.1667 0.4811 0.0000 (  3041 PWs)   bands (ev):

   -15.6003 -15.5029 -11.9161 -11.8502  -8.5625  -8.5252  -3.4857  -2.7910
     1.7606   2.2627   8.9815   9.3432

     occupation numbers 
     1.0000   1.0000   1.0000   1.0000   1.0000   1.0000   1.0000   1.0000
     0.0000   0.0000   0.0000   0.0000

          k = 0.1667 0.5774 0.0000 (  3008 PWs)   bands (ev):

   -14.3680 -14.2756 -13.3485 -13.2756  -8.7472  -8.7084  -2.5678  -1.9340
     0.6561   1.2434   9.3199   9.4656

     occupation numbers 
     1.0000   1.0000   1.0000   1.0000   1.0000   1.0000   1.0000   1.0000
     0.0000   0.0000   0.0000   0.0000

          k = 0.2500 0.4330 0.0000 (  3033 PWs)   bands (ev):

   -15.7476 -15.6500 -11.0352 -10.9885  -9.4632  -9.4286  -3.5700  -2.8751
     2.1141   2.4981   8.7880   9.1499

     occupation numbers 
     1.0000   1.0000   1.0000   1.0000   1.0000   1.0000   1.0000   1.0000
     0.0000   0.0000   0.0000   0.0000

          k = 0.2500 0.5292 0.0000 (  3013 PWs)   bands (ev):

   -14.3253 -14.2373 -12.4589 -12.3960 -10.1728 -10.1277  -2.1592  -1.5293
     0.5744   1.0099   9.8779  10.7084

     occupation numbers 
     1.0000   1.0000   1.0000   1.0000   1.0000   1.0000   1.0000   1.0000
     0.0000   0.0000   0.0000   0.0000

          k = 0.3333 0.5774 0.0000 (  3027 PWs)   bands (ev):

   -13.1086 -13.0997 -13.0384 -13.0275 -11.0630 -11.0201  -0.7938  -0.7273
    -0.2737  -0.1939   9.4404  10.7824

     occupation numbers 
     1.0000   1.0000   1.0000   1.0000   1.0000   1.0000   1.0000   1.0000
     0.0000   0.0000   0.0000   0.0000

          k =-0.0833 0.0481 0.0000 (  3052 PWs)   bands (ev):

   -19.8696 -19.7405  -8.3278  -7.4465  -4.2166  -4.2020  -3.9055  -3.8957
     3.1326   3.5238   4.2471   5.4336

     occupation numbers 
     1.0000   1.0000   1.0000   1.0000   1.0000   1.0000   1.0000   1.0000
     0.0000   0.0000   0.0000   0.0000

          k = 0.0833 0.0481 0.0000 (  3052 PWs)   bands (ev):

   -19.8696 -19.7405  -8.3278  -7.4465  -4.2166  -4.2020  -3.9055  -3.8957
     3.1326   3.5238   4.2471   5.4336

     occupation numbers 
     1.0000   1.0000   1.0000   1.0000   1.0000   1.0000   1.0000   1.0000
     0.0000   0.0000   0.0000   0.0000

          k =-0.1667 0.0962 0.0000 (  3050 PWs)   bands (ev):

   -19.3788 -19.2536  -7.7390  -6.8753  -5.8512  -5.8220  -4.6949  -4.6824
     3.7945   4.1922   4.9238   6.1040

     occupation numbers 
     1.0000   1.0000   1.0000   1.0000   1.0000   1.0000   1.0000   1.0000
     0.0000   0.0000   0.0000   0.0000

          k = 0.1667 0.0962 0.0000 (  3050 PWs)   bands (ev):

   -19.3788 -19.2536  -7.7390  -6.8753  -5.8512  -5.8220  -4.6949  -4.6824
     3.7945   4.1922   4.9238   6.1040

     occupation numbers 
     1.0000   1.0000   1.0000   1.0000   1.0000   1.0000   1.0000   1.0000
     0.0000   0.0000   0.0000   0.0000

          k =-0.2500 0.1443 0.0000 (  3048 PWs)   bands (ev):

   -18.5673 -18.4485  -7.9459  -7.9018  -6.7769  -5.9460  -5.5712  -5.5567
     4.8934   5.2926   6.0486   6.5170

     occupation numbers 
     1.0000   1.0000   1.0000   1.0000   1.0000   1.0000   1.0000   1.0000
     0.0000   0.0000   0.0000   0.0000

          k = 0.2500 0.1443 0.0000 (  3048 PWs)   bands (ev):

   -18.5673 -18.4485  -7.9459  -7.9018  -6.7769  -5.9460  -5.5712  -5.5567
     4.8934   5.2926   6.0486   6.5170

     occupation numbers 
     1.0000   1.0000   1.0000   1.0000   1.0000   1.0000   1.0000   1.0000
     0.0000   0.0000   0.0000   0.0000

          k =-0.3333 0.1925 0.0000 (  3042 PWs)   bands (ev):

   -17.4473 -17.3372 -10.1464 -10.0878  -6.3016  -6.2859  -5.4874  -4.7141
     4.1505   4.6496   6.4083   6.8655

     occupation numbers 
     1.0000   1.0000   1.0000   1.0000   1.0000   1.0000   1.0000   1.0000
     0.0000   0.0000   0.0000   0.0000

          k = 0.3333 0.1925 0.0000 (  3042 PWs)   bands (ev):

   -17.4473 -17.3372 -10.1464 -10.0878  -6.3016  -6.2859  -5.4874  -4.7141
     4.1505   4.6496   6.4083   6.8655

     occupation numbers 
     1.0000   1.0000   1.0000   1.0000   1.0000   1.0000   1.0000   1.0000
     0.0000   0.0000   0.0000   0.0000

          k =-0.4167 0.2406 0.0000 (  3054 PWs)   bands (ev):

   -16.0502 -15.9513 -12.2445 -12.1732  -6.7727  -6.7563  -4.0175  -3.3623
     1.9867   2.5726   6.8934   7.0195

     occupation numbers 
     1.0000   1.0000   1.0000   1.0000   1.0000   1.0000   1.0000   1.0000
     0.0000   0.0000   0.0000   0.0000

          k = 0.4167 0.2406 0.0000 (  3054 PWs)   bands (ev):

   -16.0502 -15.9513 -12.2445 -12.1732  -6.7727  -6.7563  -4.0175  -3.3623
     1.9867   2.5726   6.8934   7.0195

     occupation numbers 
     1.0000   1.0000   1.0000   1.0000   1.0000   1.0000   1.0000   1.0000
     0.0000   0.0000   0.0000   0.0000

          k = 0.5000-0.2887 0.0000 (  3052 PWs)   bands (ev):

   -14.7780 -14.7084 -13.7360 -13.6792  -6.9345  -6.9179  -3.0920  -2.6302
     0.9108   1.4872   6.8158   6.9402

     occupation numbers 
     1.0000   1.0000   1.0000   1.0000   1.0000   1.0000   1.0000   1.0000
     0.0000   0.0000   0.0000   0.0000

          k =-0.5000-0.2887 0.0000 (  3052 PWs)   bands (ev):

   -14.7780 -14.7084 -13.7360 -13.6792  -6.9345  -6.9179  -3.0920  -2.6302
     0.9108   1.4872   6.8158   6.9402

     occupation numbers 
     1.0000   1.0000   1.0000   1.0000   1.0000   1.0000   1.0000   1.0000
     0.0000   0.0000   0.0000   0.0000

          k =-0.0833 0.1443 0.0000 (  3051 PWs)   bands (ev):

   -19.5421 -19.4156  -7.9346  -7.0643  -5.2467  -5.2278  -4.5779  -4.5683
     3.5742   3.9699   4.6985   5.8813

     occupation numbers 
     1.0000   1.0000   1.0000   1.0000   1.0000   1.0000   1.0000   1.0000
     0.0000   0.0000   0.0000   0.0000

          k = 0.1667-0.0000 0.0000 (  3051 PWs)   bands (ev):

   -19.5421 -19.4156  -7.9343  -7.0647  -5.2487  -5.2233  -4.5818  -4.5672
     3.5742   3.9698   4.6985   5.8812

     occupation numbers 
     1.0000   1.0000   1.0000   1.0000   1.0000   1.0000   1.0000   1.0000
     0.0000   0.0000   0.0000   0.0000

          k =-0.0833 0.2406 0.0000 (  3045 PWs)   bands (ev):

   -18.8910 -18.7696  -7.1591  -6.9533  -6.9212  -6.3118  -5.5725  -5.5583
     4.4560   4.8592   5.6009   6.7737

     occupation numbers 
     1.0000   1.0000   1.0000   1.0000   1.0000   1.0000   1.0000   1.0000
     0.0000   0.0000   0.0000   0.0000

          k =-0.1667 0.1925 0.0000 (  3045 PWs)   bands (ev):

   -18.8910 -18.7696  -7.1584  -6.9529  -6.9206  -6.3125  -5.5749  -5.5571
     4.4560   4.8587   5.6009   6.7722

     occupation numbers 
     1.0000   1.0000   1.0000   1.0000   1.0000   1.0000   1.0000   1.0000
     0.0000   0.0000   0.0000   0.0000

          k = 0.2500 0.0481 0.0000 (  3045 PWs)   bands (ev):

   -18.8909 -18.7696  -7.1578  -6.9550  -6.9174  -6.3133  -5.5766  -5.5566
     4.4561   4.8585   5.6009   6.7722

     occupation numbers 
     1.0000   1.0000   1.0000   1.0000   1.0000   1.0000   1.0000   1.0000
     0.0000   0.0000   0.0000   0.0000

          k =-0.1667-0.1925 0.0000 (  3045 PWs)   bands (ev):

   -18.8910 -18.7696  -7.1584  -6.9529  -6.9206  -6.3125  -5.5749  -5.5571
     4.4560   4.8587   5.6009   6.7722

     occupation numbers 
     1.0000   1.0000   1.0000   1.0000   1.0000   1.0000   1.0000   1.0000
     0.0000   0.0000   0.0000   0.0000

          k = 0.2500-0.0481 0.0000 (  3045 PWs)   bands (ev):

   -18.8909 -18.7696  -7.1578  -6.9550  -6.9174  -6.3133  -5.5766  -5.5566
     4.4561   4.8585   5.6009   6.7722

     occupation numbers 
     1.0000   1.0000   1.0000   1.0000   1.0000   1.0000   1.0000   1.0000
     0.0000   0.0000   0.0000   0.0000

          k =-0.0833 0.3368 0.0000 (  3033 PWs)   bands (ev):

   -17.9252 -17.8111  -9.0241  -8.9757  -6.4566  -6.4381  -6.0294  -5.2210
     5.2131   5.5893   5.7739   6.2168

     occupation numbers 
     1.0000   1.0000   1.0000   1.0000   1.0000   1.0000   1.0000   1.0000
     0.0000   0.0000   0.0000   0.0000

          k =-0.2500 0.2406 0.0000 (  3033 PWs)   bands (ev):

   -17.9251 -17.8113  -9.0237  -8.9750  -6.4592  -6.4367  -6.0269  -5.2243
     5.2097   5.5944   5.7723   6.2204

     occupation numbers 
     1.0000   1.0000   1.0000   1.0000   1.0000   1.0000   1.0000   1.0000
     0.0000   0.0000   0.0000   0.0000

          k = 0.3333 0.0962 0.0000 (  3033 PWs)   bands (ev):

   -17.9250 -17.8113  -9.0249  -8.9734  -6.4598  -6.4366  -6.0260  -5.2253
     5.1845   5.6242   5.7736   6.2169

     occupation numbers 
     1.0000   1.0000   1.0000   1.0000   1.0000   1.0000   1.0000   1.0000
     0.0000   0.0000   0.0000   0.0000

          k =-0.2500-0.2406 0.0000 (  3033 PWs)   bands (ev):

   -17.9251 -17.8113  -9.0237  -8.9750  -6.4592  -6.4367  -6.0269  -5.2243
     5.2097   5.5944   5.7723   6.2204

     occupation numbers 
     1.0000   1.0000   1.0000   1.0000   1.0000   1.0000   1.0000   1.0000
     0.0000   0.0000   0.0000   0.0000

          k = 0.3333-0.0962 0.0000 (  3033 PWs)   bands (ev):

   -17.9250 -17.8113  -9.0249  -8.9734  -6.4598  -6.4366  -6.0260  -5.2253
     5.1845   5.6242   5.7736   6.2169

     occupation numbers 
     1.0000   1.0000   1.0000   1.0000   1.0000   1.0000   1.0000   1.0000
     0.0000   0.0000   0.0000   0.0000

          k =-0.0833 0.4330 0.0000 (  3041 PWs)   bands (ev):

   -16.6640 -16.5590 -11.1453 -11.0820  -7.0895  -7.0690  -4.6280  -3.8788
     2.9416   3.4851   7.4624   7.7464

     occupation numbers 
     1.0000   1.0000   1.0000   1.0000   1.0000   1.0000   1.0000   1.0000
     0.0000   0.0000   0.0000   0.0000

          k =-0.3333 0.2887 0.0000 (  3041 PWs)   bands (ev):

   -16.6635 -16.5594 -11.1449 -11.0813  -7.0921  -7.0675  -4.6171  -3.8932
     2.9607   3.4720   7.4506   7.7694

     occupation numbers 
     1.0000   1.0000   1.0000   1.0000   1.0000   1.0000   1.0000   1.0000
     0.0000   0.0000   0.0000   0.0000

          k = 0.4167 0.1443 0.0000 (  3041 PWs)   bands (ev):

   -16.6634 -16.5595 -11.1456 -11.0805  -7.0924  -7.0675  -4.6161  -3.8944
     2.9425   3.4926   7.4541   7.7441

     occupation numbers 
     1.0000   1.0000   1.0000   1.0000   1.0000   1.0000   1.0000   1.0000
     0.0000   0.0000   0.0000   0.0000

          k =-0.3333-0.2887 0.0000 (  3041 PWs)   bands (ev):

   -16.6635 -16.5594 -11.1449 -11.0813  -7.0921  -7.0675  -4.6171  -3.8932
     2.9607   3.4720   7.4506   7.7694

     occupation numbers 
     1.0000   1.0000   1.0000   1.0000   1.0000   1.0000   1.0000   1.0000
     0.0000   0.0000   0.0000   0.0000

          k = 0.4167-0.1443 0.0000 (  3041 PWs)   bands (ev):

   -16.6634 -16.5595 -11.1456 -11.0805  -7.0924  -7.0675  -4.6161  -3.8944
     2.9425   3.4926   7.4541   7.7441

     occupation numbers 
     1.0000   1.0000   1.0000   1.0000   1.0000   1.0000   1.0000   1.0000
     0.0000   0.0000   0.0000   0.0000

          k =-0.0833 0.5292 0.0000 (  3043 PWs)   bands (ev):

   -15.1848 -15.0888 -13.0850 -13.0098  -7.4169  -7.3955  -3.2849  -2.6195
     1.1155   1.7950   7.5846   7.6332

     occupation numbers 
     1.0000   1.0000   1.0000   1.0000   1.0000   1.0000   1.0000   1.0000
     0.0000   0.0000   0.0000   0.0000

          k =-0.4167 0.3368 0.0000 (  3043 PWs)   bands (ev):

   -15.1818 -15.0923 -13.0828 -13.0105  -7.4195  -7.3940  -3.2343  -2.6896
     1.1870   1.7464   7.5412   7.6784

     occupation numbers 
     1.0000   1.0000   1.0000   1.0000   1.0000   1.0000   1.0000   1.0000
     0.0000   0.0000   0.0000   0.0000

          k = 0.5000 0.1925 0.0000 (  3043 PWs)   bands (ev):

   -15.1817 -15.0924 -13.0833 -13.0101  -7.4196  -7.3940  -3.2339  -2.6897
     1.1769   1.7568   7.5409   7.6775

     occupation numbers 
     1.0000   1.0000   1.0000   1.0000   1.0000   1.0000   1.0000   1.0000
     0.0000   0.0000   0.0000   0.0000

          k =-0.4167-0.3368 0.0000 (  3043 PWs)   bands (ev):

   -15.1818 -15.0923 -13.0828 -13.0105  -7.4195  -7.3940  -3.2343  -2.6896
     1.1870   1.7464   7.5412   7.6784

     occupation numbers 
     1.0000   1.0000   1.0000   1.0000   1.0000   1.0000   1.0000   1.0000
     0.0000   0.0000   0.0000   0.0000

          k = 0.5000-0.1925 0.0000 (  3043 PWs)   bands (ev):

   -15.1817 -15.0924 -13.0833 -13.0101  -7.4196  -7.3940  -3.2339  -2.6897
     1.1769   1.7568   7.5409   7.6775

     occupation numbers 
     1.0000   1.0000   1.0000   1.0000   1.0000   1.0000   1.0000   1.0000
     0.0000   0.0000   0.0000   0.0000

          k =-0.1667 0.2887 0.0000 (  3039 PWs)   bands (ev):

   -18.0855 -17.9703  -8.2776  -8.2444  -6.9309  -6.9084  -6.2099  -5.3962
     5.5551   5.7017   5.9646   6.0017

     occupation numbers 
     1.0000   1.0000   1.0000   1.0000   1.0000   1.0000   1.0000   1.0000
     0.0000   0.0000   0.0000   0.0000

          k = 0.3333-0.0000 0.0000 (  3039 PWs)   bands (ev):

   -18.0853 -17.9704  -8.2828  -8.2369  -6.9364  -6.9053  -6.2080  -5.3986
     5.5555   5.6489   5.9639   6.0619

     occupation numbers 
     1.0000   1.0000   1.0000   1.0000   1.0000   1.0000   1.0000   1.0000
     0.0000   0.0000   0.0000   0.0000

          k =-0.1667 0.3849 0.0000 (  3045 PWs)   bands (ev):

   -16.9767 -16.8698 -10.0051  -9.9558  -7.9863  -7.9546  -4.9393  -4.1746
     3.7235   4.1035   7.0802   7.4946

     occupation numbers 
     1.0000   1.0000   1.0000   1.0000   1.0000   1.0000   1.0000   1.0000
     0.0000   0.0000   0.0000   0.0000

          k =-0.2500 0.3368 0.0000 (  3045 PWs)   bands (ev):

   -16.9765 -16.8699 -10.0047  -9.9554  -7.9872  -7.9546  -4.9363  -4.1786
     3.7244   4.1054   7.0798   7.4976

     occupation numbers 
     1.0000   1.0000   1.0000   1.0000   1.0000   1.0000   1.0000   1.0000
     0.0000   0.0000   0.0000   0.0000

          k = 0.4167 0.0481 0.0000 (  3045 PWs)   bands (ev):

   -16.9764 -16.8701 -10.0083  -9.9509  -7.9902  -7.9527  -4.9334  -4.1820
     3.6727   4.1646   7.0803   7.4921

     occupation numbers 
     1.0000   1.0000   1.0000   1.0000   1.0000   1.0000   1.0000   1.0000
     0.0000   0.0000   0.0000   0.0000

          k =-0.2500-0.3368 0.0000 (  3045 PWs)   bands (ev):

   -16.9765 -16.8699 -10.0047  -9.9554  -7.9872  -7.9546  -4.9363  -4.1786
     3.7244   4.1054   7.0798   7.4976

     occupation numbers 
     1.0000   1.0000   1.0000   1.0000   1.0000   1.0000   1.0000   1.0000
     0.0000   0.0000   0.0000   0.0000

          k = 0.4167-0.0481 0.0000 (  3045 PWs)   bands (ev):

   -16.9764 -16.8701 -10.0083  -9.9509  -7.9902  -7.9527  -4.9334  -4.1820
     3.6727   4.1646   7.0803   7.4921

     occupation numbers 
     1.0000   1.0000   1.0000   1.0000   1.0000   1.0000   1.0000   1.0000
     0.0000   0.0000   0.0000   0.0000

          k =-0.1667 0.4811 0.0000 (  3041 PWs)   bands (ev):

   -15.6003 -15.5029 -11.9161 -11.8502  -8.5625  -8.5252  -3.4857  -2.7910
     1.7606   2.2627   8.9815   9.3432

     occupation numbers 
     1.0000   1.0000   1.0000   1.0000   1.0000   1.0000   1.0000   1.0000
     0.0000   0.0000   0.0000   0.0000

          k =-0.3333 0.3849 0.0000 (  3041 PWs)   bands (ev):

   -15.5994 -15.5038 -11.9155 -11.8498  -8.5635  -8.5251  -3.4662  -2.8178
     1.7805   2.2543   8.9744   9.4009

     occupation numbers 
     1.0000   1.0000   1.0000   1.0000   1.0000   1.0000   1.0000   1.0000
     0.0000   0.0000   0.0000   0.0000

          k = 0.5000 0.0962 0.0000 (  3041 PWs)   bands (ev):

   -15.5991 -15.5041 -11.9172 -11.8478  -8.5645  -8.5246  -3.4633  -2.8204
     1.7411   2.2974   8.9787   9.3225

     occupation numbers 
     1.0000   1.0000   1.0000   1.0000   1.0000   1.0000   1.0000   1.0000
     0.0000   0.0000   0.0000   0.0000

          k =-0.3333-0.3849 0.0000 (  3041 PWs)   bands (ev):

   -15.5994 -15.5038 -11.9155 -11.8498  -8.5635  -8.5251  -3.4662  -2.8178
     1.7805   2.2543   8.9744   9.4009

     occupation numbers 
     1.0000   1.0000   1.0000   1.0000   1.0000   1.0000   1.0000   1.0000
     0.0000   0.0000   0.0000   0.0000

          k = 0.5000-0.0962 0.0000 (  3041 PWs)   bands (ev):

   -15.5991 -15.5041 -11.9172 -11.8478  -8.5645  -8.5246  -3.4633  -2.8204
     1.7411   2.2974   8.9787   9.3225

     occupation numbers 
     1.0000   1.0000   1.0000   1.0000   1.0000   1.0000   1.0000   1.0000
     0.0000   0.0000   0.0000   0.0000

          k =-0.4167 0.4330 0.0000 (  3008 PWs)   bands (ev):

   -14.3564 -14.2898 -13.3380 -13.2825  -8.7485  -8.7083  -2.4930  -2.0395
     0.7163   1.2203   9.2916   9.4985

     occupation numbers 
     1.0000   1.0000   1.0000   1.0000   1.0000   1.0000   1.0000   1.0000
     0.0000   0.0000   0.0000   0.0000

          k = 0.5833 0.1443 0.0000 (  3008 PWs)   bands (ev):

   -14.3564 -14.2898 -13.3380 -13.2825  -8.7485  -8.7083  -2.4930  -2.0395
     0.7163   1.2203   9.2916   9.4985

     occupation numbers 
     1.0000   1.0000   1.0000   1.0000   1.0000   1.0000   1.0000   1.0000
     0.0000   0.0000   0.0000   0.0000

          k =-0.2500 0.4330 0.0000 (  3033 PWs)   bands (ev):

   -15.7476 -15.6500 -11.0352 -10.9885  -9.4632  -9.4286  -3.5700  -2.8751
     2.1141   2.4981   8.7880   9.1499

     occupation numbers 
     1.0000   1.0000   1.0000   1.0000   1.0000   1.0000   1.0000   1.0000
     0.0000   0.0000   0.0000   0.0000

          k = 0.5000-0.0000 0.0000 (  3033 PWs)   bands (ev):

   -15.7470 -15.6506 -11.0432 -10.9785  -9.4708  -9.4231  -3.5612  -2.8855
     2.0450   2.5776   8.7889   9.1196

     occupation numbers 
     1.0000   1.0000   1.0000   1.0000   1.0000   1.0000   1.0000   1.0000
     0.0000   0.0000   0.0000   0.0000

          k =-0.2500 0.5292 0.0000 (  3013 PWs)   bands (ev):

   -14.3253 -14.2373 -12.4589 -12.3960 -10.1728 -10.1277  -2.1592  -1.5293
     0.5744   1.0099   9.8779  10.7084

     occupation numbers 
     1.0000   1.0000   1.0000   1.0000   1.0000   1.0000   1.0000   1.0000
     0.0000   0.0000   0.0000   0.0000

          k =-0.3333 0.4811 0.0000 (  3013 PWs)   bands (ev):

   -14.3232 -14.2398 -12.4575 -12.3961 -10.1740 -10.1274  -2.1258  -1.5790
     0.5888   1.0158   9.8665  10.7292

     occupation numbers 
     1.0000   1.0000   1.0000   1.0000   1.0000   1.0000   1.0000   1.0000
     0.0000   0.0000   0.0000   0.0000

          k = 0.5833 0.0481 0.0000 (  3013 PWs)   bands (ev):

   -14.3226 -14.2405 -12.4625 -12.3904 -10.1764 -10.1256  -2.1195  -1.5817
     0.5268   1.0778   9.8391  10.7103

     occupation numbers 
     1.0000   1.0000   1.0000   1.0000   1.0000   1.0000   1.0000   1.0000
     0.0000   0.0000   0.0000   0.0000

          k =-0.3333-0.4811 0.0000 (  3013 PWs)   bands (ev):

   -14.3232 -14.2398 -12.4575 -12.3961 -10.1740 -10.1274  -2.1258  -1.5790
     0.5888   1.0158   9.8665  10.7292

     occupation numbers 
     1.0000   1.0000   1.0000   1.0000   1.0000   1.0000   1.0000   1.0000
     0.0000   0.0000   0.0000   0.0000

          k = 0.5833-0.0481 0.0000 (  3013 PWs)   bands (ev):

   -14.3226 -14.2405 -12.4625 -12.3904 -10.1764 -10.1256  -2.1195  -1.5817
     0.5268   1.0778   9.8391  10.7103

     occupation numbers 
     1.0000   1.0000   1.0000   1.0000   1.0000   1.0000   1.0000   1.0000
     0.0000   0.0000   0.0000   0.0000

 ------ SPIN DOWN ----------


          k = 0.0000 0.0000 0.0000 (  3053 PWs)   bands (ev):

   -20.0338 -19.9034  -8.5257  -7.6388  -3.5698  -3.5632  -3.5624  -3.5595
     2.9119   3.3006   4.0215   5.2097

     occupation numbers 
     1.0000   1.0000   1.0000   1.0000   1.0000   1.0000   1.0000   1.0000
     0.0000   0.0000   0.0000   0.0000

          k = 0.0000 0.0962 0.0000 (  3052 PWs)   bands (ev):

   -19.8696 -19.7405  -8.3279  -7.4464  -4.2184  -4.2027  -3.8997  -3.8990
     3.1326   3.5238   4.2471   5.4336

     occupation numbers 
     1.0000   1.0000   1.0000   1.0000   1.0000   1.0000   1.0000   1.0000
     0.0000   0.0000   0.0000   0.0000

          k = 0.0000 0.1925 0.0000 (  3050 PWs)   bands (ev):

   -19.3788 -19.2536  -7.7396  -6.8747  -5.8518  -5.8234  -4.6880  -4.6873
     3.7945   4.1924   4.9239   6.1043

     occupation numbers 
     1.0000   1.0000   1.0000   1.0000   1.0000   1.0000   1.0000   1.0000
     0.0000   0.0000   0.0000   0.0000

          k = 0.0000 0.2887 0.0000 (  3048 PWs)   bands (ev):

   -18.5674 -18.4484  -7.9461  -7.9030  -6.7787  -5.9438  -5.5635  -5.5627
     4.8933   5.2958   6.0489   6.5150

     occupation numbers 
     1.0000   1.0000   1.0000   1.0000   1.0000   1.0000   1.0000   1.0000
     0.0000   0.0000   0.0000   0.0000

          k = 0.0000 0.3849 0.0000 (  3042 PWs)   bands (ev):

   -17.4476 -17.3370 -10.1465 -10.0888  -6.2935  -6.2926  -5.4935  -4.7062
     4.1450   4.6512   6.4107   6.8604

     occupation numbers 
     1.0000   1.0000   1.0000   1.0000   1.0000   1.0000   1.0000   1.0000
     0.0000   0.0000   0.0000   0.0000

          k = 0.0000 0.4811 0.0000 (  3054 PWs)   bands (ev):

   -16.0513 -15.9502 -12.2449 -12.1739  -6.7644  -6.7633  -4.0423  -3.3289
     1.9449   2.6035   6.9482   6.9635

     occupation numbers 
     1.0000   1.0000   1.0000   1.0000   1.0000   1.0000   1.0000   1.0000
     0.0000   0.0000   0.0000   0.0000

          k = 0.0000-0.5774 0.0000 (  3052 PWs)   bands (ev):

   -14.7902 -14.6936 -13.7479 -13.6709  -6.9261  -6.9250  -3.1686  -2.5244
     0.8064   1.5600   6.8739   6.8813

     occupation numbers 
     1.0000   1.0000   1.0000   1.0000   1.0000   1.0000   1.0000   1.0000
     0.0000   0.0000   0.0000   0.0000

          k = 0.0833 0.1443 0.0000 (  3051 PWs)   bands (ev):

   -19.5421 -19.4156  -7.9346  -7.0643  -5.2467  -5.2278  -4.5779  -4.5683
     3.5742   3.9699   4.6985   5.8813

     occupation numbers 
     1.0000   1.0000   1.0000   1.0000   1.0000   1.0000   1.0000   1.0000
     0.0000   0.0000   0.0000   0.0000

          k = 0.0833 0.2406 0.0000 (  3045 PWs)   bands (ev):

   -18.8910 -18.7696  -7.1591  -6.9533  -6.9212  -6.3118  -5.5725  -5.5583
     4.4560   4.8592   5.6009   6.7737

     occupation numbers 
     1.0000   1.0000   1.0000   1.0000   1.0000   1.0000   1.0000   1.0000
     0.0000   0.0000   0.0000   0.0000

          k = 0.0833 0.3368 0.0000 (  3033 PWs)   bands (ev):

   -17.9252 -17.8111  -9.0241  -8.9757  -6.4566  -6.4381  -6.0294  -5.2210
     5.2131   5.5893   5.7739   6.2168

     occupation numbers 
     1.0000   1.0000   1.0000   1.0000   1.0000   1.0000   1.0000   1.0000
     0.0000   0.0000   0.0000   0.0000

          k = 0.0833 0.4330 0.0000 (  3041 PWs)   bands (ev):

   -16.6640 -16.5590 -11.1453 -11.0820  -7.0895  -7.0690  -4.6280  -3.8788
     2.9416   3.4851   7.4624   7.7464

     occupation numbers 
     1.0000   1.0000   1.0000   1.0000   1.0000   1.0000   1.0000   1.0000
     0.0000   0.0000   0.0000   0.0000

          k = 0.0833 0.5292 0.0000 (  3043 PWs)   bands (ev):

   -15.1848 -15.0888 -13.0850 -13.0098  -7.4169  -7.3955  -3.2849  -2.6195
     1.1155   1.7950   7.5846   7.6332

     occupation numbers 
     1.0000   1.0000   1.0000   1.0000   1.0000   1.0000   1.0000   1.0000
     0.0000   0.0000   0.0000   0.0000

          k = 0.1667 0.2887 0.0000 (  3039 PWs)   bands (ev):

   -18.0855 -17.9703  -8.2776  -8.2444  -6.9309  -6.9084  -6.2099  -5.3962
     5.5551   5.7017   5.9646   6.0017

     occupation numbers 
     1.0000   1.0000   1.0000   1.0000   1.0000   1.0000   1.0000   1.0000
     0.0000   0.0000   0.0000   0.0000

          k = 0.1667 0.3849 0.0000 (  3045 PWs)   bands (ev):

   -16.9767 -16.8698 -10.0051  -9.9558  -7.9863  -7.9547  -4.9393  -4.1746
     3.7235   4.1035   7.0802   7.4946

     occupation numbers 
     1.0000   1.0000   1.0000   1.0000   1.0000   1.0000   1.0000   1.0000
     0.0000   0.0000   0.0000   0.0000

          k = 0.1667 0.4811 0.0000 (  3041 PWs)   bands (ev):

   -15.6003 -15.5029 -11.9161 -11.8502  -8.5625  -8.5252  -3.4857  -2.7910
     1.7606   2.2627   8.9815   9.3432

     occupation numbers 
     1.0000   1.0000   1.0000   1.0000   1.0000   1.0000   1.0000   1.0000
     0.0000   0.0000   0.0000   0.0000

          k = 0.1667 0.5774 0.0000 (  3008 PWs)   bands (ev):

   -14.3680 -14.2756 -13.3485 -13.2756  -8.7472  -8.7084  -2.5678  -1.9340
     0.6561   1.2434   9.3199   9.4656

     occupation numbers 
     1.0000   1.0000   1.0000   1.0000   1.0000   1.0000   1.0000   1.0000
     0.0000   0.0000   0.0000   0.0000

          k = 0.2500 0.4330 0.0000 (  3033 PWs)   bands (ev):

   -15.7476 -15.6500 -11.0352 -10.9885  -9.4632  -9.4286  -3.5700  -2.8751
     2.1141   2.4981   8.7880   9.1499

     occupation numbers 
     1.0000   1.0000   1.0000   1.0000   1.0000   1.0000   1.0000   1.0000
     0.0000   0.0000   0.0000   0.0000

          k = 0.2500 0.5292 0.0000 (  3013 PWs)   bands (ev):

   -14.3253 -14.2373 -12.4589 -12.3960 -10.1728 -10.1277  -2.1592  -1.5293
     0.5744   1.0099   9.8779  10.7084

     occupation numbers 
     1.0000   1.0000   1.0000   1.0000   1.0000   1.0000   1.0000   1.0000
     0.0000   0.0000   0.0000   0.0000

          k = 0.3333 0.5774 0.0000 (  3027 PWs)   bands (ev):

   -13.1086 -13.0997 -13.0384 -13.0275 -11.0630 -11.0201  -0.7938  -0.7273
    -0.2737  -0.1939   9.4404  10.7824

     occupation numbers 
     1.0000   1.0000   1.0000   1.0000   1.0000   1.0000   1.0000   1.0000
     0.0000   0.0000   0.0000   0.0000

          k =-0.0833 0.0481 0.0000 (  3052 PWs)   bands (ev):

   -19.8696 -19.7405  -8.3278  -7.4465  -4.2166  -4.2020  -3.9055  -3.8957
     3.1326   3.5238   4.2471   5.4336

     occupation numbers 
     1.0000   1.0000   1.0000   1.0000   1.0000   1.0000   1.0000   1.0000
     0.0000   0.0000   0.0000   0.0000

          k = 0.0833 0.0481 0.0000 (  3052 PWs)   bands (ev):

   -19.8696 -19.7405  -8.3278  -7.4465  -4.2166  -4.2020  -3.9055  -3.8957
     3.1326   3.5238   4.2471   5.4336

     occupation numbers 
     1.0000   1.0000   1.0000   1.0000   1.0000   1.0000   1.0000   1.0000
     0.0000   0.0000   0.0000   0.0000

          k =-0.1667 0.0962 0.0000 (  3050 PWs)   bands (ev):

   -19.3788 -19.2536  -7.7390  -6.8753  -5.8512  -5.8220  -4.6949  -4.6824
     3.7945   4.1922   4.9238   6.1040

     occupation numbers 
     1.0000   1.0000   1.0000   1.0000   1.0000   1.0000   1.0000   1.0000
     0.0000   0.0000   0.0000   0.0000

          k = 0.1667 0.0962 0.0000 (  3050 PWs)   bands (ev):

   -19.3788 -19.2536  -7.7390  -6.8753  -5.8512  -5.8220  -4.6949  -4.6824
     3.7945   4.1922   4.9238   6.1040

     occupation numbers 
     1.0000   1.0000   1.0000   1.0000   1.0000   1.0000   1.0000   1.0000
     0.0000   0.0000   0.0000   0.0000

          k =-0.2500 0.1443 0.0000 (  3048 PWs)   bands (ev):

   -18.5673 -18.4485  -7.9459  -7.9018  -6.7769  -5.9460  -5.5712  -5.5567
     4.8934   5.2926   6.0486   6.5170

     occupation numbers 
     1.0000   1.0000   1.0000   1.0000   1.0000   1.0000   1.0000   1.0000
     0.0000   0.0000   0.0000   0.0000

          k = 0.2500 0.1443 0.0000 (  3048 PWs)   bands (ev):

   -18.5673 -18.4485  -7.9459  -7.9018  -6.7769  -5.9460  -5.5712  -5.5567
     4.8934   5.2926   6.0486   6.5170

     occupation numbers 
     1.0000   1.0000   1.0000   1.0000   1.0000   1.0000   1.0000   1.0000
     0.0000   0.0000   0.0000   0.0000

          k =-0.3333 0.1925 0.0000 (  3042 PWs)   bands (ev):

   -17.4473 -17.3372 -10.1464 -10.0878  -6.3016  -6.2859  -5.4874  -4.7141
     4.1505   4.6496   6.4083   6.8655

     occupation numbers 
     1.0000   1.0000   1.0000   1.0000   1.0000   1.0000   1.0000   1.0000
     0.0000   0.0000   0.0000   0.0000

          k = 0.3333 0.1925 0.0000 (  3042 PWs)   bands (ev):

   -17.4473 -17.3372 -10.1464 -10.0878  -6.3016  -6.2859  -5.4874  -4.7141
     4.1505   4.6496   6.4083   6.8655

     occupation numbers 
     1.0000   1.0000   1.0000   1.0000   1.0000   1.0000   1.0000   1.0000
     0.0000   0.0000   0.0000   0.0000

          k =-0.4167 0.2406 0.0000 (  3054 PWs)   bands (ev):

   -16.0502 -15.9513 -12.2445 -12.1732  -6.7727  -6.7563  -4.0175  -3.3623
     1.9867   2.5726   6.8934   7.0195

     occupation numbers 
     1.0000   1.0000   1.0000   1.0000   1.0000   1.0000   1.0000   1.0000
     0.0000   0.0000   0.0000   0.0000

          k = 0.4167 0.2406 0.0000 (  3054 PWs)   bands (ev):

   -16.0502 -15.9513 -12.2445 -12.1732  -6.7727  -6.7563  -4.0175  -3.3623
     1.9867   2.5726   6.8934   7.0195

     occupation numbers 
     1.0000   1.0000   1.0000   1.0000   1.0000   1.0000   1.0000   1.0000
     0.0000   0.0000   0.0000   0.0000

          k = 0.5000-0.2887 0.0000 (  3052 PWs)   bands (ev):

   -14.7780 -14.7084 -13.7360 -13.6792  -6.9345  -6.9179  -3.0920  -2.6302
     0.9108   1.4872   6.8158   6.9402

     occupation numbers 
     1.0000   1.0000   1.0000   1.0000   1.0000   1.0000   1.0000   1.0000
     0.0000   0.0000   0.0000   0.0000

          k =-0.5000-0.2887 0.0000 (  3052 PWs)   bands (ev):

   -14.7780 -14.7084 -13.7360 -13.6792  -6.9345  -6.9179  -3.0920  -2.6302
     0.9108   1.4872   6.8158   6.9402

     occupation numbers 
     1.0000   1.0000   1.0000   1.0000   1.0000   1.0000   1.0000   1.0000
     0.0000   0.0000   0.0000   0.0000

          k =-0.0833 0.1443 0.0000 (  3051 PWs)   bands (ev):

   -19.5421 -19.4156  -7.9346  -7.0643  -5.2467  -5.2278  -4.5779  -4.5683
     3.5742   3.9699   4.6985   5.8813

     occupation numbers 
     1.0000   1.0000   1.0000   1.0000   1.0000   1.0000   1.0000   1.0000
     0.0000   0.0000   0.0000   0.0000

          k = 0.1667-0.0000 0.0000 (  3051 PWs)   bands (ev):

   -19.5420 -19.4156  -7.9343  -7.0647  -5.2487  -5.2233  -4.5818  -4.5672
     3.5742   3.9698   4.6985   5.8812

     occupation numbers 
     1.0000   1.0000   1.0000   1.0000   1.0000   1.0000   1.0000   1.0000
     0.0000   0.0000   0.0000   0.0000

          k =-0.0833 0.2406 0.0000 (  3045 PWs)   bands (ev):

   -18.8910 -18.7696  -7.1591  -6.9533  -6.9212  -6.3118  -5.5725  -5.5583
     4.4560   4.8592   5.6009   6.7737

     occupation numbers 
     1.0000   1.0000   1.0000   1.0000   1.0000   1.0000   1.0000   1.0000
     0.0000   0.0000   0.0000   0.0000

          k =-0.1667 0.1925 0.0000 (  3045 PWs)   bands (ev):

   -18.8910 -18.7696  -7.1584  -6.9529  -6.9206  -6.3125  -5.5749  -5.5571
     4.4560   4.8587   5.6009   6.7722

     occupation numbers 
     1.0000   1.0000   1.0000   1.0000   1.0000   1.0000   1.0000   1.0000
     0.0000   0.0000   0.0000   0.0000

          k = 0.2500 0.0481 0.0000 (  3045 PWs)   bands (ev):

   -18.8909 -18.7696  -7.1578  -6.9550  -6.9174  -6.3132  -5.5766  -5.5566
     4.4561   4.8585   5.6009   6.7722

     occupation numbers 
     1.0000   1.0000   1.0000   1.0000   1.0000   1.0000   1.0000   1.0000
     0.0000   0.0000   0.0000   0.0000

          k =-0.1667-0.1925 0.0000 (  3045 PWs)   bands (ev):

   -18.8910 -18.7696  -7.1584  -6.9529  -6.9206  -6.3125  -5.5749  -5.5571
     4.4560   4.8587   5.6009   6.7722

     occupation numbers 
     1.0000   1.0000   1.0000   1.0000   1.0000   1.0000   1.0000   1.0000
     0.0000   0.0000   0.0000   0.0000

          k = 0.2500-0.0481 0.0000 (  3045 PWs)   bands (ev):

   -18.8909 -18.7696  -7.1578  -6.9550  -6.9174  -6.3132  -5.5766  -5.5566
     4.4561   4.8585   5.6009   6.7722

     occupation numbers 
     1.0000   1.0000   1.0000   1.0000   1.0000   1.0000   1.0000   1.0000
     0.0000   0.0000   0.0000   0.0000

          k =-0.0833 0.3368 0.0000 (  3033 PWs)   bands (ev):

   -17.9252 -17.8111  -9.0241  -8.9757  -6.4566  -6.4381  -6.0294  -5.2210
     5.2131   5.5893   5.7739   6.2168

     occupation numbers 
     1.0000   1.0000   1.0000   1.0000   1.0000   1.0000   1.0000   1.0000
     0.0000   0.0000   0.0000   0.0000

          k =-0.2500 0.2406 0.0000 (  3033 PWs)   bands (ev):

   -17.9251 -17.8113  -9.0237  -8.9750  -6.4592  -6.4368  -6.0269  -5.2243
     5.2097   5.5944   5.7723   6.2204

     occupation numbers 
     1.0000   1.0000   1.0000   1.0000   1.0000   1.0000   1.0000   1.0000
     0.0000   0.0000   0.0000   0.0000

          k = 0.3333 0.0962 0.0000 (  3033 PWs)   bands (ev):

   -17.9250 -17.8113  -9.0249  -8.9734  -6.4598  -6.4366  -6.0260  -5.2253
     5.1845   5.6242   5.7736   6.2169

     occupation numbers 
     1.0000   1.0000   1.0000   1.0000   1.0000   1.0000   1.0000   1.0000
     0.0000   0.0000   0.0000   0.0000

          k =-0.2500-0.2406 0.0000 (  3033 PWs)   bands (ev):

   -17.9251 -17.8113  -9.0237  -8.9750  -6.4592  -6.4368  -6.0269  -5.2243
     5.2097   5.5944   5.7723   6.2204

     occupation numbers 
     1.0000   1.0000   1.0000   1.0000   1.0000   1.0000   1.0000   1.0000
     0.0000   0.0000   0.0000   0.0000

          k = 0.3333-0.0962 0.0000 (  3033 PWs)   bands (ev):

   -17.9250 -17.8113  -9.0249  -8.9734  -6.4598  -6.4366  -6.0260  -5.2253
     5.1845   5.6242   5.7736   6.2169

     occupation numbers 
     1.0000   1.0000   1.0000   1.0000   1.0000   1.0000   1.0000   1.0000
     0.0000   0.0000   0.0000   0.0000

          k =-0.0833 0.4330 0.0000 (  3041 PWs)   bands (ev):

   -16.6640 -16.5590 -11.1453 -11.0820  -7.0895  -7.0690  -4.6280  -3.8788
     2.9416   3.4851   7.4624   7.7464

     occupation numbers 
     1.0000   1.0000   1.0000   1.0000   1.0000   1.0000   1.0000   1.0000
     0.0000   0.0000   0.0000   0.0000

          k =-0.3333 0.2887 0.0000 (  3041 PWs)   bands (ev):

   -16.6635 -16.5594 -11.1449 -11.0813  -7.0921  -7.0675  -4.6171  -3.8932
     2.9607   3.4720   7.4506   7.7694

     occupation numbers 
     1.0000   1.0000   1.0000   1.0000   1.0000   1.0000   1.0000   1.0000
     0.0000   0.0000   0.0000   0.0000

          k = 0.4167 0.1443 0.0000 (  3041 PWs)   bands (ev):

   -16.6634 -16.5595 -11.1456 -11.0805  -7.0924  -7.0675  -4.6161  -3.8944
     2.9425   3.4926   7.4541   7.7441

     occupation numbers 
     1.0000   1.0000   1.0000   1.0000   1.0000   1.0000   1.0000   1.0000
     0.0000   0.0000   0.0000   0.0000

          k =-0.3333-0.2887 0.0000 (  3041 PWs)   bands (ev):

   -16.6635 -16.5594 -11.1449 -11.0813  -7.0921  -7.0675  -4.6171  -3.8932
     2.9607   3.4720   7.4506   7.7694

     occupation numbers 
     1.0000   1.0000   1.0000   1.0000   1.0000   1.0000   1.0000   1.0000
     0.0000   0.0000   0.0000   0.0000

          k = 0.4167-0.1443 0.0000 (  3041 PWs)   bands (ev):

   -16.6634 -16.5595 -11.1456 -11.0805  -7.0924  -7.0675  -4.6161  -3.8944
     2.9425   3.4926   7.4541   7.7441

     occupation numbers 
     1.0000   1.0000   1.0000   1.0000   1.0000   1.0000   1.0000   1.0000
     0.0000   0.0000   0.0000   0.0000

          k =-0.0833 0.5292 0.0000 (  3043 PWs)   bands (ev):

   -15.1848 -15.0888 -13.0850 -13.0098  -7.4169  -7.3955  -3.2849  -2.6195
     1.1155   1.7950   7.5846   7.6332

     occupation numbers 
     1.0000   1.0000   1.0000   1.0000   1.0000   1.0000   1.0000   1.0000
     0.0000   0.0000   0.0000   0.0000

          k =-0.4167 0.3368 0.0000 (  3043 PWs)   bands (ev):

   -15.1818 -15.0923 -13.0828 -13.0105  -7.4195  -7.3940  -3.2343  -2.6896
     1.1870   1.7464   7.5412   7.6784

     occupation numbers 
     1.0000   1.0000   1.0000   1.0000   1.0000   1.0000   1.0000   1.0000
     0.0000   0.0000   0.0000   0.0000

          k = 0.5000 0.1925 0.0000 (  3043 PWs)   bands (ev):

   -15.1817 -15.0924 -13.0833 -13.0101  -7.4196  -7.3940  -3.2339  -2.6897
     1.1769   1.7568   7.5409   7.6775

     occupation numbers 
     1.0000   1.0000   1.0000   1.0000   1.0000   1.0000   1.0000   1.0000
     0.0000   0.0000   0.0000   0.0000

          k =-0.4167-0.3368 0.0000 (  3043 PWs)   bands (ev):

   -15.1818 -15.0923 -13.0828 -13.0105  -7.4195  -7.3940  -3.2343  -2.6896
     1.1870   1.7464   7.5412   7.6784

     occupation numbers 
     1.0000   1.0000   1.0000   1.0000   1.0000   1.0000   1.0000   1.0000
     0.0000   0.0000   0.0000   0.0000

          k = 0.5000-0.1925 0.0000 (  3043 PWs)   bands (ev):

   -15.1817 -15.0924 -13.0833 -13.0101  -7.4196  -7.3940  -3.2339  -2.6897
     1.1769   1.7568   7.5409   7.6775

     occupation numbers 
     1.0000   1.0000   1.0000   1.0000   1.0000   1.0000   1.0000   1.0000
     0.0000   0.0000   0.0000   0.0000

          k =-0.1667 0.2887 0.0000 (  3039 PWs)   bands (ev):

   -18.0855 -17.9703  -8.2776  -8.2444  -6.9309  -6.9084  -6.2099  -5.3962
     5.5551   5.7017   5.9646   6.0017

     occupation numbers 
     1.0000   1.0000   1.0000   1.0000   1.0000   1.0000   1.0000   1.0000
     0.0000   0.0000   0.0000   0.0000

          k = 0.3333-0.0000 0.0000 (  3039 PWs)   bands (ev):

   -18.0853 -17.9704  -8.2828  -8.2369  -6.9364  -6.9053  -6.2080  -5.3986
     5.5555   5.6489   5.9639   6.0619

     occupation numbers 
     1.0000   1.0000   1.0000   1.0000   1.0000   1.0000   1.0000   1.0000
     0.0000   0.0000   0.0000   0.0000

          k =-0.1667 0.3849 0.0000 (  3045 PWs)   bands (ev):

   -16.9767 -16.8698 -10.0051  -9.9558  -7.9863  -7.9547  -4.9393  -4.1746
     3.7235   4.1035   7.0802   7.4946

     occupation numbers 
     1.0000   1.0000   1.0000   1.0000   1.0000   1.0000   1.0000   1.0000
     0.0000   0.0000   0.0000   0.0000

          k =-0.2500 0.3368 0.0000 (  3045 PWs)   bands (ev):

   -16.9765 -16.8699 -10.0047  -9.9554  -7.9872  -7.9546  -4.9363  -4.1786
     3.7244   4.1054   7.0798   7.4976

     occupation numbers 
     1.0000   1.0000   1.0000   1.0000   1.0000   1.0000   1.0000   1.0000
     0.0000   0.0000   0.0000   0.0000

          k = 0.4167 0.0481 0.0000 (  3045 PWs)   bands (ev):

   -16.9764 -16.8701 -10.0083  -9.9509  -7.9902  -7.9527  -4.9334  -4.1820
     3.6727   4.1646   7.0803   7.4921

     occupation numbers 
     1.0000   1.0000   1.0000   1.0000   1.0000   1.0000   1.0000   1.0000
     0.0000   0.0000   0.0000   0.0000

          k =-0.2500-0.3368 0.0000 (  3045 PWs)   bands (ev):

   -16.9765 -16.8699 -10.0047  -9.9554  -7.9872  -7.9546  -4.9363  -4.1786
     3.7244   4.1054   7.0798   7.4976

     occupation numbers 
     1.0000   1.0000   1.0000   1.0000   1.0000   1.0000   1.0000   1.0000
     0.0000   0.0000   0.0000   0.0000

          k = 0.4167-0.0481 0.0000 (  3045 PWs)   bands (ev):

   -16.9764 -16.8701 -10.0083  -9.9509  -7.9902  -7.9527  -4.9334  -4.1820
     3.6727   4.1646   7.0803   7.4921

     occupation numbers 
     1.0000   1.0000   1.0000   1.0000   1.0000   1.0000   1.0000   1.0000
     0.0000   0.0000   0.0000   0.0000

          k =-0.1667 0.4811 0.0000 (  3041 PWs)   bands (ev):

   -15.6003 -15.5029 -11.9161 -11.8502  -8.5625  -8.5252  -3.4857  -2.7910
     1.7606   2.2627   8.9815   9.3432

     occupation numbers 
     1.0000   1.0000   1.0000   1.0000   1.0000   1.0000   1.0000   1.0000
     0.0000   0.0000   0.0000   0.0000

          k =-0.3333 0.3849 0.0000 (  3041 PWs)   bands (ev):

   -15.5994 -15.5038 -11.9155 -11.8498  -8.5635  -8.5251  -3.4662  -2.8178
     1.7805   2.2543   8.9744   9.4009

     occupation numbers 
     1.0000   1.0000   1.0000   1.0000   1.0000   1.0000   1.0000   1.0000
     0.0000   0.0000   0.0000   0.0000

          k = 0.5000 0.0962 0.0000 (  3041 PWs)   bands (ev):

   -15.5991 -15.5041 -11.9172 -11.8478  -8.5645  -8.5246  -3.4633  -2.8204
     1.7411   2.2974   8.9787   9.3225

     occupation numbers 
     1.0000   1.0000   1.0000   1.0000   1.0000   1.0000   1.0000   1.0000
     0.0000   0.0000   0.0000   0.0000

          k =-0.3333-0.3849 0.0000 (  3041 PWs)   bands (ev):

   -15.5994 -15.5038 -11.9155 -11.8498  -8.5635  -8.5251  -3.4662  -2.8178
     1.7805   2.2543   8.9744   9.4009

     occupation numbers 
     1.0000   1.0000   1.0000   1.0000   1.0000   1.0000   1.0000   1.0000
     0.0000   0.0000   0.0000   0.0000

          k = 0.5000-0.0962 0.0000 (  3041 PWs)   bands (ev):

   -15.5991 -15.5041 -11.9172 -11.8478  -8.5645  -8.5246  -3.4633  -2.8204
     1.7411   2.2974   8.9787   9.3225

     occupation numbers 
     1.0000   1.0000   1.0000   1.0000   1.0000   1.0000   1.0000   1.0000
     0.0000   0.0000   0.0000   0.0000

          k =-0.4167 0.4330 0.0000 (  3008 PWs)   bands (ev):

   -14.3564 -14.2898 -13.3380 -13.2825  -8.7485  -8.7083  -2.4930  -2.0395
     0.7163   1.2203   9.2916   9.4985

     occupation numbers 
     1.0000   1.0000   1.0000   1.0000   1.0000   1.0000   1.0000   1.0000
     0.0000   0.0000   0.0000   0.0000

          k = 0.5833 0.1443 0.0000 (  3008 PWs)   bands (ev):

   -14.3564 -14.2898 -13.3380 -13.2825  -8.7485  -8.7083  -2.4930  -2.0395
     0.7163   1.2203   9.2916   9.4985

     occupation numbers 
     1.0000   1.0000   1.0000   1.0000   1.0000   1.0000   1.0000   1.0000
     0.0000   0.0000   0.0000   0.0000

          k =-0.2500 0.4330 0.0000 (  3033 PWs)   bands (ev):

   -15.7476 -15.6500 -11.0352 -10.9885  -9.4632  -9.4286  -3.5700  -2.8751
     2.1141   2.4981   8.7880   9.1499

     occupation numbers 
     1.0000   1.0000   1.0000   1.0000   1.0000   1.0000   1.0000   1.0000
     0.0000   0.0000   0.0000   0.0000

          k = 0.5000-0.0000 0.0000 (  3033 PWs)   bands (ev):

   -15.7470 -15.6506 -11.0432 -10.9785  -9.4708  -9.4231  -3.5611  -2.8855
     2.0450   2.5776   8.7889   9.1196

     occupation numbers 
     1.0000   1.0000   1.0000   1.0000   1.0000   1.0000   1.0000   1.0000
     0.0000   0.0000   0.0000   0.0000

          k =-0.2500 0.5292 0.0000 (  3013 PWs)   bands (ev):

   -14.3253 -14.2373 -12.4589 -12.3960 -10.1728 -10.1277  -2.1592  -1.5293
     0.5744   1.0099   9.8779  10.7084

     occupation numbers 
     1.0000   1.0000   1.0000   1.0000   1.0000   1.0000   1.0000   1.0000
     0.0000   0.0000   0.0000   0.0000

          k =-0.3333 0.4811 0.0000 (  3013 PWs)   bands (ev):

   -14.3232 -14.2398 -12.4575 -12.3961 -10.1740 -10.1274  -2.1258  -1.5790
     0.5888   1.0158   9.8665  10.7292

     occupation numbers 
     1.0000   1.0000   1.0000   1.0000   1.0000   1.0000   1.0000   1.0000
     0.0000   0.0000   0.0000   0.0000

          k = 0.5833 0.0481 0.0000 (  3013 PWs)   bands (ev):

   -14.3226 -14.2405 -12.4625 -12.3904 -10.1764 -10.1256  -2.1195  -1.5816
     0.5268   1.0778   9.8391  10.7103

     occupation numbers 
     1.0000   1.0000   1.0000   1.0000   1.0000   1.0000   1.0000   1.0000
     0.0000   0.0000   0.0000   0.0000

          k =-0.3333-0.4811 0.0000 (  3013 PWs)   bands (ev):

   -14.3232 -14.2398 -12.4575 -12.3961 -10.1740 -10.1274  -2.1258  -1.5790
     0.5888   1.0158   9.8665  10.7292

     occupation numbers 
     1.0000   1.0000   1.0000   1.0000   1.0000   1.0000   1.0000   1.0000
     0.0000   0.0000   0.0000   0.0000

          k = 0.5833-0.0481 0.0000 (  3013 PWs)   bands (ev):

   -14.3226 -14.2405 -12.4625 -12.3904 -10.1764 -10.1256  -2.1195  -1.5817
     0.5268   1.0778   9.8391  10.7103

     occupation numbers 
     1.0000   1.0000   1.0000   1.0000   1.0000   1.0000   1.0000   1.0000
     0.0000   0.0000   0.0000   0.0000

     the Fermi energy is    -0.2914 ev

     Writing output data file g.dos1.save

     init_run     :      1.77s CPU      1.79s WALL (       1 calls)
     electrons    :    119.69s CPU    120.24s WALL (       1 calls)

     Called by init_run:
     wfcinit      :      0.00s CPU      0.00s WALL (       1 calls)
     potinit      :      0.68s CPU      0.69s WALL (       1 calls)

     Called by electrons:
     c_bands      :    119.69s CPU    120.24s WALL (       1 calls)
     v_of_rho     :      0.60s CPU      0.61s WALL (       1 calls)
     v_h          :      0.01s CPU      0.01s WALL (       1 calls)
     v_xc         :      0.59s CPU      0.60s WALL (       1 calls)
     newd         :      0.32s CPU      0.32s WALL (       1 calls)

     Called by c_bands:
     init_us_2    :      0.16s CPU      0.17s WALL (     148 calls)
     cegterg      :    112.31s CPU    112.83s WALL (     348 calls)

     Called by sum_band:

     Called by *egterg:
     h_psi        :     62.46s CPU     62.89s WALL (    6267 calls)
     s_psi        :      9.17s CPU      9.19s WALL (    6267 calls)
     g_psi        :      0.62s CPU      0.62s WALL (    5771 calls)
     cdiaghg      :      4.15s CPU      4.16s WALL (    5919 calls)
     cegterg:over :     16.64s CPU     16.68s WALL (    5771 calls)
     cegterg:upda :     12.08s CPU     12.11s WALL (    5771 calls)
     cegterg:last :      9.84s CPU      9.84s WALL (     941 calls)

     Called by h_psi:
     h_psi:vloc   :     42.75s CPU     43.10s WALL (    6267 calls)
     h_psi:vnl    :     19.39s CPU     19.47s WALL (    6267 calls)
     add_vuspsi   :      9.24s CPU      9.27s WALL (    6267 calls)

     General routines
     calbec       :     10.11s CPU     10.16s WALL (    6267 calls)
     fft          :      0.21s CPU      0.21s WALL (      22 calls)
     ffts         :      0.00s CPU      0.00s WALL (       2 calls)
     fftw         :     31.19s CPU     31.45s WALL (   70274 calls)
     interpolate  :      0.02s CPU      0.02s WALL (       2 calls)

     Parallel routines
     fft_scatter  :      4.94s CPU      4.98s WALL (   70298 calls)

     PWSCF        :  2m 2.19s CPU     2m 2.88s WALL


   This run was terminated on:  14:12:14  21Apr2020            

=------------------------------------------------------------------------------=
   JOB DONE.
=------------------------------------------------------------------------------=
