
     Program PROJWFC v.5.1 starts on 21Apr2020 at 14:13: 5 

     This program is part of the open-source Quantum ESPRESSO suite
     for quantum simulation of materials; please cite
         "P. Giannozzi et al., J. Phys.:Condens. Matter 21 395502 (2009);
          URL http://www.quantum-espresso.org", 
     in publications or presentations arising from this work. More details at
     http://www.quantum-espresso.org/quote

     Parallel version (MPI), running on     1 processors

   Info: using nr1, nr2, nr3 values from input

   Info: using nr1s, nr2s, nr3s values from input

     IMPORTANT: XC functional enforced from input :
     Exchange-correlation      = PBE ( 1  4  3  4 0)
     Any further DFT definition will be discarded
     Please, verify this is what you really want

               file C.pbe-rrkjus.UPF: wavefunction(s)  2S 2P renormalized

     G-vector sticks info
     --------------------
     sticks:   dense  smooth     PW     G-vecs:    dense   smooth      PW
     Sum         595     241     85                96043    24369    4587

     Generating pointlists ...
     new r_m :   0.2381 (alat units)  1.1104 (a.u.) for type    1

     negative rho (up, down):  7.575E-07 7.575E-07

     Gaussian broadening (read from input): ngauss,degauss=   0    0.010000


     Calling projwave .... 

     Atomic states used for projection
     (read from pseudopotential files):

     state #   1: atom   1 (C  ), wfc  1 (l=0 m= 1)
     state #   2: atom   1 (C  ), wfc  2 (l=1 m= 1)
     state #   3: atom   1 (C  ), wfc  2 (l=1 m= 2)
     state #   4: atom   1 (C  ), wfc  2 (l=1 m= 3)
     state #   5: atom   2 (C  ), wfc  1 (l=0 m= 1)
     state #   6: atom   2 (C  ), wfc  2 (l=1 m= 1)
     state #   7: atom   2 (C  ), wfc  2 (l=1 m= 2)
     state #   8: atom   2 (C  ), wfc  2 (l=1 m= 3)
     state #   9: atom   3 (C  ), wfc  1 (l=0 m= 1)
     state #  10: atom   3 (C  ), wfc  2 (l=1 m= 1)
     state #  11: atom   3 (C  ), wfc  2 (l=1 m= 2)
     state #  12: atom   3 (C  ), wfc  2 (l=1 m= 3)
     state #  13: atom   4 (C  ), wfc  1 (l=0 m= 1)
     state #  14: atom   4 (C  ), wfc  2 (l=1 m= 1)
     state #  15: atom   4 (C  ), wfc  2 (l=1 m= 2)
     state #  16: atom   4 (C  ), wfc  2 (l=1 m= 3)

 k =   0.0000000000  0.0000000000  0.0000000000
==== e(   1) =   -20.03375 eV ==== 
     psi = 0.244*[#   1]+0.244*[#   5]+0.244*[#   9]+0.244*[#  13]+
    |psi|^2 = 0.979
==== e(   2) =   -19.90336 eV ==== 
     psi = 0.246*[#   1]+0.246*[#   5]+0.246*[#   9]+0.246*[#  13]+
    |psi|^2 = 0.986
==== e(   3) =    -8.52569 eV ==== 
     psi = 0.237*[#   2]+0.237*[#   6]+0.237*[#  10]+0.237*[#  14]+
    |psi|^2 = 0.950
==== e(   4) =    -7.63881 eV ==== 
     psi = 0.240*[#   2]+0.240*[#   6]+0.240*[#  10]+0.240*[#  14]+
    |psi|^2 = 0.965
==== e(   5) =    -3.56984 eV ==== 
     psi = 0.250*[#  12]+0.250*[#  16]+0.249*[#   4]+0.249*[#   8]+
    |psi|^2 = 0.997
==== e(   6) =    -3.56320 eV ==== 
     psi = 0.252*[#  11]+0.252*[#  15]+0.246*[#   3]+0.246*[#   7]+
    |psi|^2 = 0.997
==== e(   7) =    -3.56244 eV ==== 
     psi = 0.252*[#   3]+0.252*[#   7]+0.246*[#  11]+0.246*[#  15]+
    |psi|^2 = 0.997
==== e(   8) =    -3.55950 eV ==== 
     psi = 0.250*[#   4]+0.250*[#   8]+0.249*[#  12]+0.249*[#  16]+
    |psi|^2 = 0.997
==== e(   9) =     2.91187 eV ==== 
     psi = 0.002*[#   1]+0.002*[#   5]+0.002*[#   9]+0.002*[#  13]+0.001*[#   2]+
          +0.001*[#   6]+0.001*[#  10]+0.001*[#  14]+
    |psi|^2 = 0.013
==== e(  10) =     3.30057 eV ==== 
     psi = 0.005*[#   2]+0.005*[#   6]+0.005*[#  10]+0.005*[#  14]+
    |psi|^2 = 0.021
==== e(  11) =     4.02146 eV ==== 
     psi = 
    |psi|^2 = 0.002
==== e(  12) =     5.20966 eV ==== 
     psi = 0.002*[#   2]+0.002*[#   6]+0.002*[#  10]+0.002*[#  14]+
    |psi|^2 = 0.008

 k =   0.0000000000  0.0962250449  0.0000000000
==== e(   1) =   -19.86957 eV ==== 
     psi = 0.231*[#   1]+0.231*[#   5]+0.231*[#   9]+0.231*[#  13]+0.014*[#   4]+
          +0.014*[#   8]+0.014*[#  12]+0.014*[#  16]+
    |psi|^2 = 0.979
==== e(   2) =   -19.74048 eV ==== 
     psi = 0.233*[#   1]+0.233*[#   5]+0.233*[#   9]+0.233*[#  13]+0.013*[#   4]+
          +0.013*[#   8]+0.013*[#  12]+0.013*[#  16]+
    |psi|^2 = 0.986
==== e(   3) =    -8.32793 eV ==== 
     psi = 0.238*[#   2]+0.238*[#   6]+0.238*[#  10]+0.238*[#  14]+
    |psi|^2 = 0.954
==== e(   4) =    -7.44639 eV ==== 
     psi = 0.242*[#   2]+0.242*[#   6]+0.242*[#  10]+0.242*[#  14]+
    |psi|^2 = 0.968
==== e(   5) =    -4.21837 eV ==== 
     psi = 0.241*[#  12]+0.241*[#  16]+0.240*[#   4]+0.240*[#   8]+0.009*[#   1]+
          +0.009*[#   5]+0.009*[#   9]+0.009*[#  13]+
    |psi|^2 = 0.997
==== e(   6) =    -4.20269 eV ==== 
     psi = 0.241*[#   4]+0.241*[#   8]+0.241*[#  12]+0.241*[#  16]+0.009*[#   1]+
          +0.009*[#   5]+0.009*[#   9]+0.009*[#  13]+
    |psi|^2 = 0.997
==== e(   7) =    -3.89970 eV ==== 
     psi = 0.253*[#  11]+0.253*[#  15]+0.246*[#   3]+0.246*[#   7]+
    |psi|^2 = 0.997
==== e(   8) =    -3.89899 eV ==== 
     psi = 0.253*[#   3]+0.253*[#   7]+0.246*[#  11]+0.246*[#  15]+
    |psi|^2 = 0.997
==== e(   9) =     3.13260 eV ==== 
     psi = 0.004*[#   4]+0.004*[#   8]+0.004*[#  12]+0.004*[#  16]+0.001*[#   2]+
          +0.001*[#   6]+0.001*[#  10]+0.001*[#  14]+
    |psi|^2 = 0.026
==== e(  10) =     3.52381 eV ==== 
     psi = 0.004*[#   2]+0.004*[#   6]+0.004*[#  10]+0.004*[#  14]+0.001*[#   4]+
          +0.001*[#   8]+0.001*[#  12]+0.001*[#  16]+
    |psi|^2 = 0.023
==== e(  11) =     4.24707 eV ==== 
     psi = 
    |psi|^2 = 0.005
==== e(  12) =     5.43359 eV ==== 
     psi = 0.001*[#   2]+0.001*[#   6]+0.001*[#  10]+0.001*[#  14]+
    |psi|^2 = 0.008

 k =   0.0000000000  0.1924500897  0.0000000000
==== e(   1) =   -19.37881 eV ==== 
     psi = 0.202*[#   1]+0.202*[#   5]+0.202*[#   9]+0.202*[#  13]+0.043*[#   4]+
          +0.043*[#   8]+0.043*[#  12]+0.043*[#  16]+
    |psi|^2 = 0.978
==== e(   2) =   -19.25358 eV ==== 
     psi = 0.205*[#   1]+0.205*[#   5]+0.205*[#   9]+0.205*[#  13]+0.041*[#   4]+
          +0.041*[#   8]+0.041*[#  12]+0.041*[#  16]+
    |psi|^2 = 0.985
==== e(   3) =    -7.73957 eV ==== 
     psi = 0.241*[#   2]+0.241*[#   6]+0.241*[#  10]+0.241*[#  14]+
    |psi|^2 = 0.965
==== e(   4) =    -6.87467 eV ==== 
     psi = 0.244*[#   2]+0.244*[#   6]+0.244*[#  10]+0.244*[#  14]+
    |psi|^2 = 0.977
==== e(   5) =    -5.85177 eV ==== 
     psi = 0.220*[#  12]+0.220*[#  16]+0.220*[#   4]+0.220*[#   8]+0.028*[#   1]+
          +0.028*[#   5]+0.028*[#   9]+0.028*[#  13]+
    |psi|^2 = 0.994
==== e(   6) =    -5.82336 eV ==== 
     psi = 0.221*[#   4]+0.221*[#   8]+0.221*[#  12]+0.221*[#  16]+0.028*[#   1]+
          +0.028*[#   5]+0.028*[#   9]+0.028*[#  13]+
    |psi|^2 = 0.996
==== e(   7) =    -4.68800 eV ==== 
     psi = 0.252*[#  11]+0.252*[#  15]+0.246*[#   3]+0.246*[#   7]+
    |psi|^2 = 0.997
==== e(   8) =    -4.68728 eV ==== 
     psi = 0.252*[#   3]+0.252*[#   7]+0.246*[#  11]+0.246*[#  15]+
    |psi|^2 = 0.997
==== e(   9) =     3.79445 eV ==== 
     psi = 0.009*[#   4]+0.009*[#   8]+0.009*[#  12]+0.009*[#  16]+
    |psi|^2 = 0.041
==== e(  10) =     4.19241 eV ==== 
     psi = 0.003*[#   2]+0.003*[#   4]+0.003*[#   6]+0.003*[#   8]+0.003*[#  10]+
          +0.003*[#  12]+0.003*[#  14]+0.003*[#  16]+
    |psi|^2 = 0.024
==== e(  11) =     4.92388 eV ==== 
     psi = 0.002*[#   4]+0.002*[#   8]+0.002*[#  12]+0.002*[#  16]+
    |psi|^2 = 0.007
==== e(  12) =     6.10427 eV ==== 
     psi = 0.001*[#   2]+0.001*[#   6]+0.001*[#  10]+0.001*[#  14]+
    |psi|^2 = 0.007

 k =   0.0000000000  0.2886751346  0.0000000000
==== e(   1) =   -18.56739 eV ==== 
     psi = 0.174*[#   1]+0.174*[#   5]+0.174*[#   9]+0.174*[#  13]+0.070*[#   4]+
          +0.070*[#   8]+0.070*[#  12]+0.070*[#  16]+
    |psi|^2 = 0.977
==== e(   2) =   -18.44840 eV ==== 
     psi = 0.177*[#   1]+0.177*[#   5]+0.177*[#   9]+0.177*[#  13]+0.069*[#   4]+
          +0.069*[#   8]+0.069*[#  12]+0.069*[#  16]+
    |psi|^2 = 0.984
==== e(   3) =    -7.94613 eV ==== 
     psi = 0.199*[#   4]+0.199*[#   8]+0.199*[#  12]+0.199*[#  16]+0.049*[#   1]+
          +0.049*[#   5]+0.049*[#   9]+0.049*[#  13]+
    |psi|^2 = 0.991
==== e(   4) =    -7.90301 eV ==== 
     psi = 0.200*[#   4]+0.200*[#   8]+0.200*[#  12]+0.200*[#  16]+0.048*[#   1]+
          +0.048*[#   5]+0.048*[#   9]+0.048*[#  13]+
    |psi|^2 = 0.994
==== e(   5) =    -6.77866 eV ==== 
     psi = 0.245*[#   2]+0.245*[#   6]+0.245*[#  10]+0.245*[#  14]+
    |psi|^2 = 0.979
==== e(   6) =    -5.94377 eV ==== 
     psi = 0.247*[#   2]+0.247*[#   6]+0.247*[#  10]+0.247*[#  14]+
    |psi|^2 = 0.987
==== e(   7) =    -5.56349 eV ==== 
     psi = 0.252*[#  11]+0.252*[#  15]+0.247*[#   3]+0.247*[#   7]+
    |psi|^2 = 0.997
==== e(   8) =    -5.56267 eV ==== 
     psi = 0.252*[#   3]+0.252*[#   7]+0.247*[#  11]+0.247*[#  15]+
    |psi|^2 = 0.997
==== e(   9) =     4.89325 eV ==== 
     psi = 0.008*[#   4]+0.008*[#   8]+0.008*[#  12]+0.008*[#  16]+
    |psi|^2 = 0.035
==== e(  10) =     5.29584 eV ==== 
     psi = 0.003*[#   2]+0.003*[#   4]+0.003*[#   6]+0.003*[#   8]+0.003*[#  10]+
          +0.003*[#  12]+0.003*[#  14]+0.003*[#  16]+
    |psi|^2 = 0.022
==== e(  11) =     6.04891 eV ==== 
     psi = 
    |psi|^2 = 0.006
==== e(  12) =     6.51498 eV ==== 
     psi = 0.227*[#   2]+0.227*[#   6]+0.227*[#  10]+0.227*[#  14]+
    |psi|^2 = 0.909

 k =   0.0000000000  0.3849001795  0.0000000000
==== e(   1) =   -17.44764 eV ==== 
     psi = 0.152*[#   1]+0.152*[#   5]+0.152*[#   9]+0.152*[#  13]+0.092*[#   4]+
          +0.092*[#   8]+0.092*[#  12]+0.092*[#  16]+
    |psi|^2 = 0.978
==== e(   2) =   -17.33697 eV ==== 
     psi = 0.155*[#   1]+0.155*[#   5]+0.155*[#   9]+0.155*[#  13]+0.091*[#   4]+
          +0.091*[#   8]+0.091*[#  12]+0.091*[#  16]+
    |psi|^2 = 0.984
==== e(   3) =   -10.14646 eV ==== 
     psi = 0.181*[#   4]+0.181*[#   8]+0.181*[#  12]+0.181*[#  16]+0.066*[#   1]+
          +0.066*[#   5]+0.066*[#   9]+0.066*[#  13]+
    |psi|^2 = 0.989
==== e(   4) =   -10.08883 eV ==== 
     psi = 0.182*[#   4]+0.182*[#   8]+0.182*[#  12]+0.182*[#  16]+0.066*[#   1]+
          +0.066*[#   5]+0.066*[#   9]+0.066*[#  13]+
    |psi|^2 = 0.992
==== e(   5) =    -6.29354 eV ==== 
     psi = 0.251*[#  11]+0.251*[#  15]+0.247*[#   3]+0.247*[#   7]+
    |psi|^2 = 0.997
==== e(   6) =    -6.29258 eV ==== 
     psi = 0.251*[#   3]+0.251*[#   7]+0.247*[#  11]+0.247*[#  15]+
    |psi|^2 = 0.997
==== e(   7) =    -5.49348 eV ==== 
     psi = 0.248*[#   2]+0.248*[#   6]+0.248*[#  10]+0.248*[#  14]+
    |psi|^2 = 0.991
==== e(   8) =    -4.70624 eV ==== 
     psi = 0.249*[#   2]+0.249*[#   6]+0.249*[#  10]+0.249*[#  14]+
    |psi|^2 = 0.994
==== e(   9) =     4.14504 eV ==== 
     psi = 0.233*[#   2]+0.233*[#   6]+0.233*[#  10]+0.233*[#  14]+
    |psi|^2 = 0.932
==== e(  10) =     4.65118 eV ==== 
     psi = 0.236*[#   2]+0.236*[#   6]+0.236*[#  10]+0.236*[#  14]+
    |psi|^2 = 0.945
==== e(  11) =     6.41067 eV ==== 
     psi = 0.004*[#   1]+0.004*[#   5]+0.004*[#   9]+0.004*[#  13]+0.001*[#   4]+
          +0.001*[#   8]+0.001*[#  12]+0.001*[#  16]+
    |psi|^2 = 0.021
==== e(  12) =     6.86045 eV ==== 
     psi = 0.007*[#   1]+0.007*[#   5]+0.007*[#   9]+0.007*[#  13]+0.003*[#   2]+
          +0.003*[#   6]+0.003*[#  10]+0.003*[#  14]+
    |psi|^2 = 0.040

 k =   0.0000000000  0.4811252243  0.0000000000
==== e(   1) =   -16.05125 eV ==== 
     psi = 0.139*[#   1]+0.139*[#   5]+0.139*[#   9]+0.139*[#  13]+0.106*[#   4]+
          +0.106*[#   8]+0.106*[#  12]+0.106*[#  16]+
    |psi|^2 = 0.982
==== e(   2) =   -15.95015 eV ==== 
     psi = 0.141*[#   1]+0.141*[#   5]+0.141*[#   9]+0.141*[#  13]+0.106*[#   4]+
          +0.106*[#   8]+0.106*[#  12]+0.106*[#  16]+
    |psi|^2 = 0.987
==== e(   3) =   -12.24489 eV ==== 
     psi = 0.169*[#   4]+0.169*[#   8]+0.169*[#  12]+0.169*[#  16]+0.077*[#   1]+
          +0.077*[#   5]+0.077*[#   9]+0.077*[#  13]+
    |psi|^2 = 0.985
==== e(   4) =   -12.17389 eV ==== 
     psi = 0.170*[#   4]+0.170*[#   8]+0.169*[#  12]+0.169*[#  16]+0.078*[#   1]+
          +0.078*[#   5]+0.078*[#   9]+0.078*[#  13]+
    |psi|^2 = 0.988
==== e(   5) =    -6.76440 eV ==== 
     psi = 0.251*[#  11]+0.251*[#  15]+0.247*[#   3]+0.247*[#   7]+
    |psi|^2 = 0.996
==== e(   6) =    -6.76334 eV ==== 
     psi = 0.251*[#   3]+0.251*[#   7]+0.247*[#  11]+0.247*[#  15]+
    |psi|^2 = 0.996
==== e(   7) =    -4.04231 eV ==== 
     psi = 0.249*[#   2]+0.249*[#   6]+0.249*[#  10]+0.249*[#  14]+
    |psi|^2 = 0.996
==== e(   8) =    -3.32889 eV ==== 
     psi = 0.249*[#   2]+0.249*[#   6]+0.249*[#  10]+0.249*[#  14]+
    |psi|^2 = 0.997
==== e(   9) =     1.94491 eV ==== 
     psi = 0.235*[#   2]+0.235*[#   6]+0.235*[#  10]+0.235*[#  14]+
    |psi|^2 = 0.939
==== e(  10) =     2.60347 eV ==== 
     psi = 0.238*[#   2]+0.238*[#   6]+0.238*[#  10]+0.238*[#  14]+
    |psi|^2 = 0.953
==== e(  11) =     6.94819 eV ==== 
     psi = 0.160*[#   9]+0.160*[#  13]+0.159*[#   1]+0.159*[#   5]+0.056*[#   4]+
          +0.056*[#   8]+0.056*[#  12]+0.056*[#  16]+
    |psi|^2 = 0.862
==== e(  12) =     6.96350 eV ==== 
     psi = 0.160*[#   1]+0.160*[#   5]+0.160*[#   9]+0.160*[#  13]+0.061*[#   4]+
          +0.061*[#   8]+0.060*[#  12]+0.060*[#  16]+
    |psi|^2 = 0.882

 k =   0.0000000000 -0.5773502692  0.0000000000
==== e(   1) =   -14.79017 eV ==== 
     psi = 0.160*[#   1]+0.160*[#   5]+0.160*[#   9]+0.160*[#  13]+0.088*[#   4]+
          +0.088*[#   8]+0.088*[#  12]+0.088*[#  16]+
    |psi|^2 = 0.992
==== e(   2) =   -14.69362 eV ==== 
     psi = 0.161*[#   1]+0.161*[#   5]+0.161*[#   9]+0.161*[#  13]+0.087*[#   4]+
          +0.087*[#   8]+0.087*[#  12]+0.087*[#  16]+
    |psi|^2 = 0.994
==== e(   3) =   -13.74790 eV ==== 
     psi = 0.188*[#   4]+0.188*[#   8]+0.188*[#  12]+0.188*[#  16]+0.056*[#   1]+
          +0.056*[#   5]+0.056*[#   9]+0.056*[#  13]+
    |psi|^2 = 0.975
==== e(   4) =   -13.67087 eV ==== 
     psi = 0.189*[#   4]+0.189*[#   8]+0.189*[#  12]+0.189*[#  16]+0.057*[#   1]+
          +0.057*[#   5]+0.057*[#   9]+0.057*[#  13]+
    |psi|^2 = 0.981
==== e(   5) =    -6.92606 eV ==== 
     psi = 0.251*[#  11]+0.251*[#  15]+0.247*[#   3]+0.247*[#   7]+
    |psi|^2 = 0.996
==== e(   6) =    -6.92505 eV ==== 
     psi = 0.251*[#   3]+0.251*[#   7]+0.247*[#  11]+0.247*[#  15]+
    |psi|^2 = 0.996
==== e(   7) =    -3.16857 eV ==== 
     psi = 0.249*[#   2]+0.249*[#   6]+0.249*[#  10]+0.249*[#  14]+
    |psi|^2 = 0.998
==== e(   8) =    -2.52436 eV ==== 
     psi = 0.249*[#   2]+0.249*[#   6]+0.249*[#  10]+0.249*[#  14]+
    |psi|^2 = 0.998
==== e(   9) =     0.80644 eV ==== 
     psi = 0.236*[#   2]+0.236*[#   6]+0.236*[#  10]+0.236*[#  14]+
    |psi|^2 = 0.943
==== e(  10) =     1.55998 eV ==== 
     psi = 0.239*[#   2]+0.239*[#   6]+0.239*[#  10]+0.239*[#  14]+
    |psi|^2 = 0.954
==== e(  11) =     6.87387 eV ==== 
     psi = 0.168*[#   9]+0.168*[#  13]+0.167*[#   1]+0.167*[#   5]+0.053*[#  12]+
          +0.053*[#  16]+0.053*[#   4]+0.053*[#   8]+
    |psi|^2 = 0.882
==== e(  12) =     6.88128 eV ==== 
     psi = 0.167*[#   1]+0.167*[#   5]+0.167*[#   9]+0.167*[#  13]+0.054*[#   4]+
          +0.054*[#   8]+0.054*[#  12]+0.054*[#  16]+
    |psi|^2 = 0.885

 k =   0.0833333333  0.1443375673  0.0000000000
==== e(   1) =   -19.54209 eV ==== 
     psi = 0.210*[#   1]+0.210*[#   5]+0.210*[#   9]+0.210*[#  13]+0.026*[#   4]+
          +0.026*[#   8]+0.026*[#  12]+0.026*[#  16]+0.009*[#   3]+0.009*[#   7]+
          +0.009*[#  11]+0.009*[#  15]+
    |psi|^2 = 0.978
==== e(   2) =   -19.41560 eV ==== 
     psi = 0.213*[#   1]+0.213*[#   5]+0.213*[#   9]+0.213*[#  13]+0.025*[#   4]+
          +0.025*[#   8]+0.025*[#  12]+0.025*[#  16]+0.008*[#   3]+0.008*[#   7]+
          +0.008*[#  11]+0.008*[#  15]+
    |psi|^2 = 0.985
==== e(   3) =    -7.93461 eV ==== 
     psi = 0.240*[#   6]+0.240*[#  10]+0.240*[#   2]+0.240*[#  14]+
    |psi|^2 = 0.961
==== e(   4) =    -7.06434 eV ==== 
     psi = 0.243*[#   2]+0.243*[#  14]+0.243*[#   6]+0.243*[#  10]+
    |psi|^2 = 0.975
==== e(   5) =    -5.24672 eV ==== 
     psi = 0.164*[#  16]+0.164*[#   4]+0.163*[#  12]+0.162*[#   8]+0.066*[#   7]+
          +0.066*[#  11]+0.065*[#   3]+0.065*[#  15]+0.021*[#   1]+0.021*[#  13]+
          +0.020*[#   5]+0.020*[#   9]+
    |psi|^2 = 0.998
==== e(   6) =    -5.22779 eV ==== 
     psi = 0.164*[#   8]+0.164*[#  12]+0.162*[#   4]+0.162*[#  16]+0.066*[#   3]+
          +0.066*[#  15]+0.065*[#   7]+0.065*[#  11]+0.021*[#   5]+0.021*[#   9]+
          +0.020*[#   1]+0.020*[#  13]+
    |psi|^2 = 0.998
==== e(   7) =    -4.57791 eV ==== 
     psi = 0.176*[#  11]+0.176*[#  15]+0.175*[#   7]+0.175*[#   3]+0.070*[#  12]+
          +0.070*[#  16]+0.070*[#   4]+0.070*[#   8]+0.003*[#   1]+0.003*[#  13]+
          +0.003*[#   5]+0.003*[#   9]+
    |psi|^2 = 0.995
==== e(   8) =    -4.56835 eV ==== 
     psi = 0.175*[#   3]+0.175*[#   7]+0.175*[#  15]+0.175*[#  11]+0.071*[#   4]+
          +0.071*[#   8]+0.071*[#  12]+0.071*[#  16]+0.003*[#   5]+0.003*[#   9]+
          +0.003*[#   1]+0.003*[#  13]+
    |psi|^2 = 0.996
==== e(   9) =     3.57419 eV ==== 
     psi = 0.006*[#   4]+0.006*[#   8]+0.006*[#  12]+0.006*[#  16]+0.002*[#   3]+
          +0.002*[#   7]+0.002*[#  11]+0.002*[#  15]+0.001*[#   2]+
    |psi|^2 = 0.039
==== e(  10) =     3.96988 eV ==== 
     psi = 0.003*[#   2]+0.003*[#   6]+0.003*[#  10]+0.003*[#  14]+0.002*[#   4]+
          +0.002*[#   8]+0.002*[#  12]+0.002*[#  16]+
    |psi|^2 = 0.025
==== e(  11) =     4.69847 eV ==== 
     psi = 0.001*[#   4]+0.001*[#   8]+0.001*[#  12]+0.001*[#  16]+
    |psi|^2 = 0.007
==== e(  12) =     5.88132 eV ==== 
     psi = 0.001*[#   2]+0.001*[#   6]+0.001*[#  10]+0.001*[#  14]+
    |psi|^2 = 0.008

 k =   0.0833333333  0.2405626122  0.0000000000
==== e(   1) =   -18.89101 eV ==== 
     psi = 0.183*[#   1]+0.183*[#   5]+0.183*[#   9]+0.183*[#  13]+0.055*[#   4]+
          +0.055*[#   8]+0.055*[#  12]+0.055*[#  16]+0.007*[#   3]+0.007*[#   7]+
          +0.007*[#  11]+0.007*[#  15]+
    |psi|^2 = 0.977
==== e(   2) =   -18.76957 eV ==== 
     psi = 0.186*[#   1]+0.186*[#   5]+0.186*[#   9]+0.186*[#  13]+0.053*[#   4]+
          +0.053*[#   8]+0.053*[#  12]+0.053*[#  16]+0.006*[#   3]+0.006*[#   7]+
          +0.006*[#  11]+0.006*[#  15]+
    |psi|^2 = 0.984
==== e(   3) =    -7.15914 eV ==== 
     psi = 0.243*[#   6]+0.243*[#  10]+0.243*[#   2]+0.243*[#  14]+
    |psi|^2 = 0.974
==== e(   4) =    -6.95327 eV ==== 
     psi = 0.196*[#  12]+0.196*[#   8]+0.196*[#  16]+0.196*[#   4]+0.039*[#   1]+
          +0.039*[#  13]+0.039*[#   5]+0.039*[#   9]+0.014*[#   7]+0.014*[#  11]+
          +0.014*[#   3]+0.014*[#  15]+
    |psi|^2 = 0.995
==== e(   5) =    -6.92119 eV ==== 
     psi = 0.196*[#   4]+0.196*[#   8]+0.196*[#  12]+0.196*[#  16]+0.039*[#   5]+
          +0.039*[#   9]+0.038*[#   1]+0.038*[#  13]+0.015*[#   3]+0.015*[#  15]+
          +0.014*[#   7]+0.014*[#  11]+
    |psi|^2 = 0.996
==== e(   6) =    -6.31180 eV ==== 
     psi = 0.246*[#   2]+0.246*[#  14]+0.246*[#   6]+0.246*[#  10]+
    |psi|^2 = 0.984
==== e(   7) =    -5.57251 eV ==== 
     psi = 0.226*[#  15]+0.226*[#   3]+0.225*[#  11]+0.225*[#   7]+0.017*[#   8]+
          +0.017*[#  12]+0.017*[#   4]+0.017*[#  16]+0.006*[#   1]+0.006*[#  13]+
          +0.006*[#   5]+0.006*[#   9]+
    |psi|^2 = 0.994
==== e(   8) =    -5.55828 eV ==== 
     psi = 0.227*[#   7]+0.227*[#  11]+0.226*[#   3]+0.226*[#  15]+0.017*[#   4]+
          +0.017*[#  16]+0.016*[#   8]+0.016*[#  12]+0.006*[#   5]+0.006*[#   9]+
          +0.006*[#   1]+0.006*[#  13]+
    |psi|^2 = 0.994
==== e(   9) =     4.45598 eV ==== 
     psi = 0.009*[#   4]+0.009*[#   8]+0.009*[#  12]+0.009*[#  16]+0.001*[#   3]+
          +0.001*[#   7]+0.001*[#  11]+0.001*[#  15]+
    |psi|^2 = 0.042
==== e(  10) =     4.85916 eV ==== 
     psi = 0.003*[#   4]+0.003*[#   8]+0.003*[#  12]+0.003*[#  16]+0.002*[#   6]+
          +0.002*[#  10]+0.002*[#   2]+0.002*[#  14]+
    |psi|^2 = 0.022
==== e(  11) =     5.60093 eV ==== 
     psi = 0.001*[#   4]+0.001*[#   8]+0.001*[#  12]+0.001*[#  16]+
    |psi|^2 = 0.007
==== e(  12) =     6.77367 eV ==== 
     psi = 0.001*[#   6]+0.001*[#  10]+
    |psi|^2 = 0.007

 k =   0.0833333333  0.3367876570  0.0000000000
==== e(   1) =   -17.92524 eV ==== 
     psi = 0.160*[#   1]+0.160*[#   5]+0.160*[#   9]+0.160*[#  13]+0.080*[#   4]+
          +0.080*[#   8]+0.080*[#  12]+0.080*[#  16]+0.005*[#   3]+0.005*[#   7]+
          +0.005*[#  11]+0.005*[#  15]+
    |psi|^2 = 0.977
==== e(   2) =   -17.81113 eV ==== 
     psi = 0.163*[#   1]+0.163*[#   5]+0.163*[#   9]+0.163*[#  13]+0.078*[#   4]+
          +0.078*[#   8]+0.078*[#  12]+0.078*[#  16]+0.005*[#   3]+0.005*[#   7]+
          +0.005*[#  11]+0.005*[#  15]+
    |psi|^2 = 0.984
==== e(   3) =    -9.02413 eV ==== 
     psi = 0.186*[#   4]+0.186*[#   8]+0.187*[#  12]+0.187*[#  16]+0.058*[#   1]+
          +0.058*[#  13]+0.057*[#   5]+0.057*[#   9]+0.004*[#   7]+0.004*[#  11]+
          +0.004*[#   3]+0.004*[#  15]+
    |psi|^2 = 0.991
==== e(   4) =    -8.97571 eV ==== 
     psi = 0.187*[#   4]+0.187*[#   8]+0.187*[#  12]+0.187*[#  16]+0.057*[#   5]+
          +0.057*[#   9]+0.057*[#   1]+0.057*[#  13]+0.004*[#   3]+0.004*[#  15]+
          +0.004*[#   7]+0.004*[#  11]+
    |psi|^2 = 0.994
==== e(   5) =    -6.45657 eV ==== 
     psi = 0.237*[#  15]+0.237*[#   3]+0.236*[#  11]+0.236*[#   7]+0.007*[#   1]+
          +0.007*[#   5]+0.007*[#   9]+0.007*[#  13]+0.005*[#   8]+0.005*[#  12]+
          +0.005*[#   4]+0.005*[#  16]+
    |psi|^2 = 0.995
==== e(   6) =    -6.43812 eV ==== 
     psi = 0.237*[#   7]+0.237*[#  11]+0.236*[#   3]+0.236*[#  15]+0.007*[#   1]+
          +0.007*[#   5]+0.007*[#   9]+0.007*[#  13]+0.005*[#   4]+0.005*[#  16]+
          +0.005*[#   8]+0.005*[#  12]+
    |psi|^2 = 0.995
==== e(   7) =    -6.02945 eV ==== 
     psi = 0.247*[#   6]+0.247*[#  10]+0.246*[#   2]+0.246*[#  14]+
    |psi|^2 = 0.987
==== e(   8) =    -5.22096 eV ==== 
     psi = 0.248*[#   2]+0.248*[#  14]+0.248*[#   6]+0.248*[#  10]+
    |psi|^2 = 0.992
==== e(   9) =     5.21305 eV ==== 
     psi = 0.235*[#   6]+0.235*[#  10]+0.235*[#   2]+0.235*[#  14]+
    |psi|^2 = 0.940
==== e(  10) =     5.58931 eV ==== 
     psi = 0.229*[#   2]+0.229*[#  14]+0.228*[#   6]+0.228*[#  10]+
    |psi|^2 = 0.916
==== e(  11) =     5.77387 eV ==== 
     psi = 0.006*[#   4]+0.006*[#   8]+0.006*[#  12]+0.006*[#  16]+0.002*[#   6]+
          +0.002*[#  10]+
    |psi|^2 = 0.032
==== e(  12) =     6.21681 eV ==== 
     psi = 0.013*[#   2]+0.013*[#  14]+0.012*[#   6]+0.012*[#  10]+0.002*[#   4]+
          +0.002*[#   8]+0.002*[#  12]+0.002*[#  16]+
    |psi|^2 = 0.057

 k =   0.0833333333  0.4330127019  0.0000000000
==== e(   1) =   -16.66397 eV ==== 
     psi = 0.142*[#   1]+0.142*[#   5]+0.142*[#   9]+0.142*[#  13]+0.098*[#   4]+
          +0.098*[#   8]+0.098*[#  12]+0.098*[#  16]+0.004*[#   3]+0.004*[#   7]+
          +0.004*[#  11]+0.004*[#  15]+
    |psi|^2 = 0.979
==== e(   2) =   -16.55897 eV ==== 
     psi = 0.145*[#   1]+0.145*[#   5]+0.145*[#   9]+0.145*[#  13]+0.097*[#   4]+
          +0.097*[#   8]+0.097*[#  12]+0.097*[#  16]+0.004*[#   3]+0.004*[#   7]+
          +0.004*[#  11]+0.004*[#  15]+
    |psi|^2 = 0.985
==== e(   3) =   -11.14526 eV ==== 
     psi = 0.172*[#   4]+0.172*[#  12]+0.172*[#  16]+0.172*[#   8]+0.073*[#   1]+
          +0.073*[#   5]+0.073*[#   9]+0.073*[#  13]+0.002*[#   3]+0.002*[#   7]+
          +0.002*[#  11]+0.002*[#  15]+
    |psi|^2 = 0.988
==== e(   4) =   -11.08195 eV ==== 
     psi = 0.173*[#   4]+0.173*[#   8]+0.173*[#  12]+0.173*[#  16]+0.073*[#   1]+
          +0.073*[#   5]+0.073*[#   9]+0.073*[#  13]+0.002*[#   3]+0.002*[#   7]+
          +0.002*[#  11]+0.002*[#  15]+
    |psi|^2 = 0.991
==== e(   5) =    -7.08948 eV ==== 
     psi = 0.239*[#  15]+0.239*[#   3]+0.239*[#  11]+0.238*[#   7]+0.008*[#   1]+
          +0.008*[#   5]+0.008*[#   9]+0.008*[#  13]+0.002*[#   4]+0.003*[#   8]+
          +0.003*[#  12]+0.002*[#  16]+
    |psi|^2 = 0.995
==== e(   6) =    -7.06896 eV ==== 
     psi = 0.239*[#   7]+0.239*[#  11]+0.239*[#   3]+0.239*[#  15]+0.008*[#   1]+
          +0.008*[#   5]+0.008*[#   9]+0.008*[#  13]+0.002*[#   4]+0.002*[#   8]+
          +0.002*[#  12]+0.002*[#  16]+
    |psi|^2 = 0.995
==== e(   7) =    -4.62802 eV ==== 
     psi = 0.249*[#   6]+0.249*[#  10]+0.248*[#   2]+0.248*[#  14]+
    |psi|^2 = 0.995
==== e(   8) =    -3.87881 eV ==== 
     psi = 0.249*[#   2]+0.249*[#  14]+0.249*[#   6]+0.249*[#  10]+
    |psi|^2 = 0.996
==== e(   9) =     2.94161 eV ==== 
     psi = 0.236*[#   6]+0.236*[#  10]+0.236*[#   2]+0.236*[#  14]+
    |psi|^2 = 0.944
==== e(  10) =     3.48509 eV ==== 
     psi = 0.240*[#   2]+0.240*[#  14]+0.239*[#   6]+0.239*[#  10]+
    |psi|^2 = 0.958
==== e(  11) =     7.46242 eV ==== 
     psi = 0.023*[#   5]+0.023*[#   9]+0.023*[#   1]+0.023*[#  13]+0.002*[#   8]+
          +0.002*[#  12]+0.002*[#   7]+0.002*[#  11]+0.002*[#   3]+0.002*[#   4]+
          +0.002*[#  15]+0.002*[#  16]+
    |psi|^2 = 0.106
==== e(  12) =     7.74641 eV ==== 
     psi = 0.123*[#   1]+0.123*[#  13]+0.122*[#   5]+0.122*[#   9]+0.055*[#   4]+
          +0.055*[#  16]+0.054*[#   8]+0.054*[#  12]+0.008*[#   3]+0.008*[#  15]+
          +0.007*[#   7]+0.007*[#  11]+
    |psi|^2 = 0.738

 k =   0.0833333333  0.5292377468  0.0000000000
==== e(   1) =   -15.18480 eV ==== 
     psi = 0.139*[#   1]+0.139*[#   5]+0.139*[#   9]+0.139*[#  13]+0.103*[#   4]+
          +0.103*[#   8]+0.103*[#  12]+0.103*[#  16]+0.004*[#   3]+0.004*[#   7]+
          +0.004*[#  11]+0.004*[#  15]+
    |psi|^2 = 0.986
==== e(   2) =   -15.08876 eV ==== 
     psi = 0.141*[#   1]+0.141*[#   5]+0.140*[#   9]+0.141*[#  13]+0.103*[#   4]+
          +0.103*[#   8]+0.103*[#  12]+0.103*[#  16]+0.004*[#   3]+0.004*[#   7]+
          +0.004*[#  11]+0.004*[#  15]+
    |psi|^2 = 0.989
==== e(   3) =   -13.08497 eV ==== 
     psi = 0.169*[#   4]+0.169*[#  12]+0.169*[#  16]+0.169*[#   8]+0.075*[#   1]+
          +0.075*[#   5]+0.075*[#   9]+0.075*[#  13]+0.001*[#   3]+0.001*[#   7]+
          +0.001*[#  11]+0.001*[#  15]+
    |psi|^2 = 0.982
==== e(   4) =   -13.00983 eV ==== 
     psi = 0.169*[#   4]+0.170*[#   8]+0.170*[#  12]+0.169*[#  16]+0.076*[#   1]+
          +0.076*[#   5]+0.076*[#   9]+0.076*[#  13]+0.001*[#   3]+0.001*[#   7]+
          +0.001*[#  11]+0.001*[#  15]+
    |psi|^2 = 0.986
==== e(   5) =    -7.41690 eV ==== 
     psi = 0.239*[#  11]+0.239*[#  15]+0.239*[#   3]+0.239*[#   7]+0.008*[#   1]+
          +0.008*[#   5]+0.008*[#   9]+0.008*[#  13]+0.002*[#   4]+0.002*[#   8]+
          +0.002*[#  12]+0.002*[#  16]+
    |psi|^2 = 0.995
==== e(   6) =    -7.39548 eV ==== 
     psi = 0.239*[#   3]+0.240*[#   7]+0.239*[#  11]+0.239*[#  15]+0.008*[#   1]+
          +0.008*[#   5]+0.008*[#   9]+0.008*[#  13]+0.002*[#   4]+0.002*[#   8]+
          +0.002*[#  12]+0.002*[#  16]+
    |psi|^2 = 0.995
==== e(   7) =    -3.28491 eV ==== 
     psi = 0.250*[#   6]+0.250*[#  10]+0.249*[#   2]+0.249*[#  14]+
    |psi|^2 = 0.997
==== e(   8) =    -2.61949 eV ==== 
     psi = 0.250*[#   2]+0.250*[#  14]+0.249*[#   6]+0.249*[#  10]+
    |psi|^2 = 0.997
==== e(   9) =     1.11552 eV ==== 
     psi = 0.237*[#   6]+0.237*[#  10]+0.237*[#   2]+0.237*[#  14]+
    |psi|^2 = 0.948
==== e(  10) =     1.79504 eV ==== 
     psi = 0.240*[#   2]+0.240*[#  14]+0.240*[#   6]+0.240*[#  10]+
    |psi|^2 = 0.959
==== e(  11) =     7.58460 eV ==== 
     psi = 0.156*[#   5]+0.156*[#   9]+0.154*[#   1]+0.154*[#  13]+0.054*[#   8]+
          +0.054*[#  12]+0.054*[#   4]+0.054*[#  16]+0.008*[#   3]+0.008*[#   7]+
          +0.008*[#  11]+0.008*[#  15]+
    |psi|^2 = 0.865
==== e(  12) =     7.63321 eV ==== 
     psi = 0.156*[#   1]+0.156*[#  13]+0.155*[#   5]+0.155*[#   9]+0.055*[#   4]+
          +0.055*[#  16]+0.054*[#   8]+0.054*[#  12]+0.008*[#   3]+0.008*[#   7]+
          +0.008*[#  11]+0.008*[#  15]+
    |psi|^2 = 0.872

 k =   0.1666666667  0.2886751346  0.0000000000
==== e(   1) =   -18.08549 eV ==== 
     psi = 0.162*[#   5]+0.162*[#   9]+0.162*[#   1]+0.162*[#  13]+0.061*[#   4]+
          +0.061*[#   8]+0.061*[#  12]+0.061*[#  16]+0.021*[#   3]+0.021*[#   7]+
          +0.021*[#  11]+0.021*[#  15]+
    |psi|^2 = 0.977
==== e(   2) =   -17.97030 eV ==== 
     psi = 0.166*[#   1]+0.166*[#   5]+0.165*[#   9]+0.166*[#  13]+0.060*[#   4]+
          +0.060*[#   8]+0.060*[#  12]+0.060*[#  16]+0.020*[#   3]+0.020*[#   7]+
          +0.020*[#  11]+0.020*[#  15]+
    |psi|^2 = 0.984
==== e(   3) =    -8.27755 eV ==== 
     psi = 0.131*[#   4]+0.131*[#  16]+0.129*[#   8]+0.129*[#  12]+0.067*[#   7]+
          +0.067*[#  11]+0.065*[#   3]+0.065*[#  15]+0.054*[#   1]+0.054*[#  13]+
          +0.053*[#   5]+0.053*[#   9]+
    |psi|^2 = 0.996
==== e(   4) =    -8.24437 eV ==== 
     psi = 0.131*[#   8]+0.131*[#  12]+0.129*[#   4]+0.129*[#  16]+0.067*[#   3]+
          +0.067*[#  15]+0.065*[#   7]+0.065*[#  11]+0.054*[#   5]+0.054*[#   9]+
          +0.053*[#   1]+0.053*[#  13]+
    |psi|^2 = 0.996
==== e(   5) =    -6.93091 eV ==== 
     psi = 0.158*[#  15]+0.158*[#   3]+0.158*[#  11]+0.157*[#   7]+0.076*[#   8]+
          +0.076*[#  12]+0.076*[#   4]+0.076*[#  16]+0.014*[#   1]+0.014*[#  13]+
          +0.013*[#   5]+0.013*[#   9]+
    |psi|^2 = 0.989
==== e(   6) =    -6.90845 eV ==== 
     psi = 0.158*[#   7]+0.158*[#  11]+0.157*[#   3]+0.157*[#  15]+0.077*[#   4]+
          +0.077*[#  16]+0.077*[#   8]+0.077*[#  12]+0.014*[#   5]+0.014*[#   9]+
          +0.013*[#   1]+0.013*[#  13]+
    |psi|^2 = 0.992
==== e(   7) =    -6.20995 eV ==== 
     psi = 0.246*[#   6]+0.246*[#  10]+0.246*[#   2]+0.246*[#  14]+
    |psi|^2 = 0.985
==== e(   8) =    -5.39622 eV ==== 
     psi = 0.248*[#   2]+0.248*[#  14]+0.247*[#   6]+0.247*[#  10]+
    |psi|^2 = 0.991
==== e(   9) =     5.55507 eV ==== 
     psi = 0.006*[#   4]+0.006*[#   8]+0.006*[#  12]+0.006*[#  16]+0.002*[#   3]+
          +0.002*[#   7]+0.002*[#  11]+0.002*[#  15]+
    |psi|^2 = 0.034
==== e(  10) =     5.70173 eV ==== 
     psi = 0.242*[#   6]+0.242*[#  10]+0.239*[#   2]+0.239*[#  14]+
    |psi|^2 = 0.963
==== e(  11) =     5.96457 eV ==== 
     psi = 0.012*[#   2]+0.012*[#  14]+0.005*[#   6]+0.005*[#  10]+0.002*[#   4]+
          +0.002*[#   8]+0.002*[#  12]+0.002*[#  16]+
    |psi|^2 = 0.045
==== e(  12) =     6.00173 eV ==== 
     psi = 0.237*[#   6]+0.237*[#  10]+0.234*[#   2]+0.234*[#  14]+
    |psi|^2 = 0.943

 k =   0.1666666667  0.3849001795  0.0000000000
==== e(   1) =   -16.97669 eV ==== 
     psi = 0.145*[#   5]+0.145*[#   9]+0.145*[#   1]+0.145*[#  13]+0.083*[#   4]+
          +0.083*[#   8]+0.083*[#  12]+0.083*[#  16]+0.017*[#   3]+0.017*[#  15]+
          +0.016*[#   7]+0.016*[#  11]+
    |psi|^2 = 0.979
==== e(   2) =   -16.86976 eV ==== 
     psi = 0.147*[#   1]+0.147*[#   5]+0.147*[#  13]+0.147*[#   9]+0.082*[#   4]+
          +0.082*[#   8]+0.082*[#  12]+0.082*[#  16]+0.016*[#   7]+0.016*[#   3]+
          +0.016*[#  11]+0.016*[#  15]+
    |psi|^2 = 0.985
==== e(   3) =   -10.00508 eV ==== 
     psi = 0.164*[#   4]+0.164*[#  16]+0.163*[#   8]+0.163*[#  12]+0.069*[#   1]+
          +0.069*[#  13]+0.068*[#   5]+0.068*[#   9]+0.017*[#   7]+0.017*[#  11]+
          +0.016*[#   3]+0.016*[#  15]+
    |psi|^2 = 0.993
==== e(   4) =    -9.95581 eV ==== 
     psi = 0.164*[#   8]+0.164*[#  12]+0.163*[#   4]+0.163*[#  16]+0.069*[#   5]+
          +0.069*[#   9]+0.068*[#   1]+0.068*[#  13]+0.017*[#   3]+0.017*[#  15]+
          +0.016*[#   7]+0.016*[#  11]+
    |psi|^2 = 0.994
==== e(   5) =    -7.98628 eV ==== 
     psi = 0.208*[#  15]+0.208*[#   3]+0.208*[#  11]+0.207*[#   7]+0.022*[#   8]+
          +0.022*[#  12]+0.022*[#   4]+0.022*[#  16]+0.018*[#   1]+0.018*[#  13]+
          +0.017*[#   5]+0.017*[#   9]+
    |psi|^2 = 0.991
==== e(   6) =    -7.95465 eV ==== 
     psi = 0.209*[#   7]+0.209*[#  11]+0.208*[#   3]+0.208*[#  15]+0.022*[#   4]+
          +0.022*[#  16]+0.022*[#   8]+0.021*[#  12]+0.018*[#   5]+0.018*[#   9]+
          +0.017*[#   1]+0.017*[#  13]+
    |psi|^2 = 0.992
==== e(   7) =    -4.93933 eV ==== 
     psi = 0.249*[#   6]+0.249*[#  10]+0.248*[#   2]+0.248*[#  14]+
    |psi|^2 = 0.994
==== e(   8) =    -4.17462 eV ==== 
     psi = 0.250*[#   2]+0.250*[#  14]+0.248*[#   6]+0.248*[#  10]+
    |psi|^2 = 0.996
==== e(   9) =     3.72352 eV ==== 
     psi = 0.242*[#   6]+0.242*[#  10]+0.241*[#   2]+0.241*[#  14]+
    |psi|^2 = 0.966
==== e(  10) =     4.10350 eV ==== 
     psi = 0.244*[#   2]+0.244*[#  14]+0.242*[#   6]+0.243*[#  10]+
    |psi|^2 = 0.972
==== e(  11) =     7.08021 eV ==== 
     psi = 0.003*[#   4]+0.003*[#   8]+0.003*[#  12]+0.003*[#  16]+
    |psi|^2 = 0.018
==== e(  12) =     7.49463 eV ==== 
     psi = 0.001*[#   4]+0.001*[#   8]+0.001*[#  12]+0.001*[#  16]+
    |psi|^2 = 0.008

 k =   0.1666666667  0.4811252243  0.0000000000
==== e(   1) =   -15.60027 eV ==== 
     psi = 0.133*[#   5]+0.133*[#   9]+0.133*[#   1]+0.133*[#  13]+0.098*[#   4]+
          +0.098*[#  16]+0.098*[#   8]+0.098*[#  12]+0.015*[#   3]+0.015*[#  15]+
          +0.014*[#   7]+0.014*[#  11]+
    |psi|^2 = 0.983
==== e(   2) =   -15.50290 eV ==== 
     psi = 0.135*[#   1]+0.135*[#  13]+0.134*[#   5]+0.134*[#   9]+0.098*[#   4]+
          +0.098*[#   8]+0.098*[#  12]+0.098*[#  16]+0.014*[#   7]+0.014*[#  11]+
          +0.014*[#   3]+0.014*[#  15]+
    |psi|^2 = 0.987
==== e(   3) =   -11.91612 eV ==== 
     psi = 0.161*[#   4]+0.162*[#  16]+0.161*[#   8]+0.161*[#  12]+0.079*[#   1]+
          +0.079*[#  13]+0.079*[#   5]+0.079*[#   9]+0.007*[#   7]+0.007*[#  11]+
          +0.007*[#   3]+0.007*[#  15]+
    |psi|^2 = 0.988
==== e(   4) =   -11.85016 eV ==== 
     psi = 0.162*[#   8]+0.162*[#  12]+0.162*[#   4]+0.161*[#  16]+0.079*[#   5]+
          +0.079*[#   9]+0.079*[#   1]+0.079*[#  13]+0.007*[#   3]+0.007*[#  15]+
          +0.007*[#   7]+0.007*[#  11]+
    |psi|^2 = 0.990
==== e(   5) =    -8.56246 eV ==== 
     psi = 0.219*[#  15]+0.219*[#   3]+0.219*[#  11]+0.219*[#   7]+0.020*[#   1]+
          +0.020*[#   5]+0.020*[#   9]+0.020*[#  13]+0.009*[#   4]+0.009*[#   8]+
          +0.009*[#  12]+0.009*[#  16]+
    |psi|^2 = 0.992
==== e(   6) =    -8.52518 eV ==== 
     psi = 0.219*[#   7]+0.219*[#  11]+0.219*[#   3]+0.219*[#  15]+0.020*[#   1]+
          +0.020*[#   5]+0.020*[#   9]+0.020*[#  13]+0.009*[#   4]+0.009*[#   8]+
          +0.009*[#  12]+0.009*[#  16]+
    |psi|^2 = 0.992
==== e(   7) =    -3.48575 eV ==== 
     psi = 0.250*[#   6]+0.250*[#  10]+0.248*[#   2]+0.248*[#  14]+
    |psi|^2 = 0.996
==== e(   8) =    -2.79103 eV ==== 
     psi = 0.250*[#   2]+0.250*[#  14]+0.248*[#   6]+0.248*[#  10]+
    |psi|^2 = 0.997
==== e(   9) =     1.76062 eV ==== 
     psi = 0.242*[#   6]+0.242*[#  10]+0.240*[#   2]+0.240*[#  14]+
    |psi|^2 = 0.965
==== e(  10) =     2.26270 eV ==== 
     psi = 0.244*[#   2]+0.244*[#  14]+0.243*[#   6]+0.243*[#  10]+
    |psi|^2 = 0.973
==== e(  11) =     8.98151 eV ==== 
     psi = 0.010*[#   5]+0.010*[#   9]+0.009*[#   1]+0.009*[#  13]+0.002*[#   7]+
          +0.002*[#  11]+0.002*[#   3]+0.002*[#  15]+
    |psi|^2 = 0.048
==== e(  12) =     9.34316 eV ==== 
     psi = 0.051*[#   1]+0.051*[#  13]+0.046*[#   5]+0.046*[#   9]+0.018*[#   4]+
          +0.018*[#   8]+0.018*[#  12]+0.018*[#  16]+0.009*[#   3]+0.009*[#  15]+
          +0.008*[#   7]+0.008*[#  11]+
    |psi|^2 = 0.299

 k =   0.1666666667  0.5773502692  0.0000000000
==== e(   1) =   -14.36800 eV ==== 
     psi = 0.148*[#   1]+0.148*[#   5]+0.148*[#   9]+0.148*[#  13]+0.080*[#   4]+
          +0.080*[#   8]+0.080*[#  12]+0.080*[#  16]+0.020*[#   3]+0.020*[#   7]+
          +0.020*[#  11]+0.020*[#  15]+
    |psi|^2 = 0.992
==== e(   2) =   -14.27562 eV ==== 
     psi = 0.149*[#   1]+0.149*[#   5]+0.149*[#   9]+0.149*[#  13]+0.080*[#   4]+
          +0.080*[#   8]+0.080*[#  12]+0.080*[#  16]+0.019*[#   3]+0.019*[#   7]+
          +0.019*[#  11]+0.019*[#  15]+
    |psi|^2 = 0.994
==== e(   3) =   -13.34850 eV ==== 
     psi = 0.182*[#   4]+0.182*[#   8]+0.182*[#  12]+0.182*[#  16]+0.063*[#   1]+
          +0.063*[#   5]+0.063*[#   9]+0.063*[#  13]+
    |psi|^2 = 0.979
==== e(   4) =   -13.27555 eV ==== 
     psi = 0.182*[#   4]+0.182*[#   8]+0.182*[#  12]+0.182*[#  16]+0.064*[#   1]+
          +0.064*[#   5]+0.064*[#   9]+0.064*[#  13]+
    |psi|^2 = 0.984
==== e(   5) =    -8.74716 eV ==== 
     psi = 0.220*[#   3]+0.220*[#   7]+0.220*[#  11]+0.220*[#  15]+0.021*[#   1]+
          +0.021*[#   5]+0.021*[#   9]+0.021*[#  13]+0.007*[#   4]+0.007*[#   8]+
          +0.007*[#  12]+0.007*[#  16]+
    |psi|^2 = 0.992
==== e(   6) =    -8.70844 eV ==== 
     psi = 0.221*[#   3]+0.221*[#   7]+0.221*[#  11]+0.221*[#  15]+0.021*[#   1]+
          +0.021*[#   5]+0.021*[#   9]+0.021*[#  13]+0.007*[#   4]+0.007*[#   8]+
          +0.007*[#  12]+0.007*[#  16]+
    |psi|^2 = 0.993
==== e(   7) =    -2.56783 eV ==== 
     psi = 0.249*[#   2]+0.249*[#   6]+0.249*[#  10]+0.249*[#  14]+
    |psi|^2 = 0.998
==== e(   8) =    -1.93399 eV ==== 
     psi = 0.249*[#   2]+0.249*[#   6]+0.249*[#  10]+0.249*[#  14]+
    |psi|^2 = 0.997
==== e(   9) =     0.65608 eV ==== 
     psi = 0.241*[#   2]+0.241*[#   6]+0.241*[#  10]+0.241*[#  14]+
    |psi|^2 = 0.963
==== e(  10) =     1.24340 eV ==== 
     psi = 0.243*[#   2]+0.243*[#   6]+0.243*[#  10]+0.243*[#  14]+
    |psi|^2 = 0.973
==== e(  11) =     9.31991 eV ==== 
     psi = 0.133*[#   1]+0.133*[#   5]+0.133*[#   9]+0.133*[#  13]+0.050*[#   4]+
          +0.050*[#   8]+0.050*[#  12]+0.050*[#  16]+0.020*[#   3]+0.020*[#   7]+
          +0.020*[#  11]+0.020*[#  15]+
    |psi|^2 = 0.811
==== e(  12) =     9.46561 eV ==== 
     psi = 0.136*[#   1]+0.136*[#   5]+0.136*[#   9]+0.136*[#  13]+0.051*[#   4]+
          +0.051*[#   8]+0.051*[#  12]+0.051*[#  16]+0.021*[#   3]+0.021*[#   7]+
          +0.021*[#  11]+0.021*[#  15]+
    |psi|^2 = 0.835

 k =   0.2500000000  0.4330127019  0.0000000000
==== e(   1) =   -15.74756 eV ==== 
     psi = 0.132*[#   5]+0.132*[#   9]+0.131*[#   1]+0.132*[#  13]+0.084*[#   4]+
          +0.084*[#  16]+0.083*[#   8]+0.083*[#  12]+0.030*[#   3]+0.030*[#  15]+
          +0.030*[#   7]+0.030*[#  11]+
    |psi|^2 = 0.982
==== e(   2) =   -15.65001 eV ==== 
     psi = 0.134*[#   1]+0.134*[#  13]+0.134*[#   5]+0.134*[#   9]+0.083*[#   8]+
          +0.083*[#  12]+0.083*[#   4]+0.083*[#  16]+0.030*[#   7]+0.030*[#  11]+
          +0.030*[#   3]+0.030*[#  15]+
    |psi|^2 = 0.987
==== e(   3) =   -11.03519 eV ==== 
     psi = 0.098*[#   4]+0.098*[#  16]+0.096*[#   8]+0.096*[#  12]+0.087*[#   1]+
          +0.087*[#  13]+0.086*[#   5]+0.086*[#   9]+0.066*[#   7]+0.066*[#  11]+
          +0.063*[#   3]+0.063*[#  15]+
    |psi|^2 = 0.994
==== e(   4) =   -10.98850 eV ==== 
     psi = 0.098*[#   8]+0.098*[#  12]+0.096*[#   4]+0.096*[#  16]+0.087*[#   5]+
          +0.087*[#   9]+0.086*[#   1]+0.086*[#  13]+0.066*[#   3]+0.066*[#  15]+
          +0.063*[#   7]+0.063*[#  11]+
    |psi|^2 = 0.995
==== e(   5) =    -9.46322 eV ==== 
     psi = 0.150*[#   7]+0.150*[#  11]+0.148*[#   3]+0.148*[#  15]+0.081*[#   4]+
          +0.081*[#  16]+0.080*[#   8]+0.080*[#  12]+0.018*[#   1]+0.018*[#  13]+
          +0.016*[#   5]+0.016*[#   9]+
    |psi|^2 = 0.986
==== e(   6) =    -9.42860 eV ==== 
     psi = 0.150*[#   3]+0.150*[#  15]+0.148*[#   7]+0.148*[#  11]+0.081*[#   8]+
          +0.081*[#  12]+0.081*[#   4]+0.081*[#  16]+0.018*[#   5]+0.018*[#   9]+
          +0.016*[#   1]+0.016*[#  13]+
    |psi|^2 = 0.989
==== e(   7) =    -3.56997 eV ==== 
     psi = 0.251*[#   6]+0.251*[#  10]+0.247*[#   2]+0.247*[#  14]+
    |psi|^2 = 0.996
==== e(   8) =    -2.87511 eV ==== 
     psi = 0.252*[#   2]+0.252*[#  14]+0.246*[#   6]+0.246*[#  10]+
    |psi|^2 = 0.996
==== e(   9) =     2.11411 eV ==== 
     psi = 0.249*[#   6]+0.249*[#  10]+0.241*[#   2]+0.241*[#  14]+
    |psi|^2 = 0.981
==== e(  10) =     2.49808 eV ==== 
     psi = 0.249*[#   2]+0.249*[#  14]+0.242*[#   6]+0.242*[#  10]+
    |psi|^2 = 0.982
==== e(  11) =     8.78805 eV ==== 
     psi = 0.001*[#   5]+0.001*[#   9]+0.001*[#   1]+0.001*[#   4]+0.001*[#   8]+
          +0.001*[#  12]+0.001*[#  13]+0.001*[#  16]+
    |psi|^2 = 0.011
==== e(  12) =     9.14989 eV ==== 
     psi = 
    |psi|^2 = 0.004

 k =   0.2500000000  0.5292377468  0.0000000000
==== e(   1) =   -14.32526 eV ==== 
     psi = 0.126*[#   5]+0.126*[#   9]+0.126*[#   1]+0.126*[#  13]+0.090*[#   4]+
          +0.090*[#  16]+0.090*[#   8]+0.090*[#  12]+0.031*[#   3]+0.031*[#  15]+
          +0.031*[#   7]+0.031*[#  11]+
    |psi|^2 = 0.988
==== e(   2) =   -14.23729 eV ==== 
     psi = 0.128*[#   1]+0.128*[#  13]+0.127*[#   5]+0.127*[#   9]+0.090*[#   8]+
          +0.090*[#  12]+0.089*[#   4]+0.089*[#  16]+0.031*[#   7]+0.031*[#  11]+
          +0.031*[#   3]+0.031*[#  15]+
    |psi|^2 = 0.991
==== e(   3) =   -12.45885 eV ==== 
     psi = 0.141*[#   4]+0.141*[#  16]+0.139*[#   8]+0.139*[#  12]+0.092*[#   1]+
          +0.092*[#  13]+0.091*[#   5]+0.091*[#   9]+0.016*[#   7]+0.016*[#  11]+
          +0.015*[#   3]+0.015*[#  15]+
    |psi|^2 = 0.989
==== e(   4) =   -12.39598 eV ==== 
     psi = 0.140*[#   8]+0.140*[#  12]+0.139*[#   4]+0.139*[#  16]+0.092*[#   5]+
          +0.092*[#   9]+0.092*[#   1]+0.092*[#  13]+0.017*[#   3]+0.017*[#  15]+
          +0.016*[#   7]+0.016*[#  11]+
    |psi|^2 = 0.991
==== e(   5) =   -10.17280 eV ==== 
     psi = 0.195*[#   7]+0.195*[#  11]+0.195*[#   3]+0.195*[#  15]+0.032*[#   4]+
          +0.032*[#  16]+0.032*[#   8]+0.032*[#  12]+0.020*[#   1]+0.020*[#  13]+
          +0.019*[#   5]+0.019*[#   9]+
    |psi|^2 = 0.986
==== e(   6) =   -10.12774 eV ==== 
     psi = 0.196*[#   3]+0.196*[#  15]+0.196*[#   7]+0.196*[#  11]+0.031*[#   8]+
          +0.031*[#  12]+0.031*[#   4]+0.031*[#  16]+0.021*[#   5]+0.021*[#   9]+
          +0.020*[#   1]+0.020*[#  13]+
    |psi|^2 = 0.988
==== e(   7) =    -2.15921 eV ==== 
     psi = 0.253*[#   6]+0.253*[#  10]+0.245*[#   2]+0.245*[#  14]+
    |psi|^2 = 0.996
==== e(   8) =    -1.52929 eV ==== 
     psi = 0.256*[#   2]+0.256*[#  14]+0.242*[#   6]+0.242*[#  10]+
    |psi|^2 = 0.996
==== e(   9) =     0.57443 eV ==== 
     psi = 0.253*[#   6]+0.253*[#  10]+0.239*[#   2]+0.239*[#  14]+
    |psi|^2 = 0.984
==== e(  10) =     1.00989 eV ==== 
     psi = 0.251*[#   2]+0.251*[#  14]+0.242*[#   6]+0.242*[#  10]+
    |psi|^2 = 0.986
==== e(  11) =     9.87787 eV ==== 
     psi = 0.002*[#   5]+0.002*[#   9]+0.002*[#   1]+0.002*[#  13]+0.001*[#   2]+
          +0.001*[#  14]+0.001*[#   6]+0.001*[#  10]+
    |psi|^2 = 0.018
==== e(  12) =    10.70837 eV ==== 
     psi = 0.011*[#   5]+0.011*[#   9]+0.011*[#   1]+0.011*[#  13]+0.004*[#   3]+
          +0.004*[#  15]+0.003*[#   7]+0.003*[#  11]+0.002*[#   8]+0.002*[#  12]+
          +0.002*[#   4]+0.002*[#  16]+
    |psi|^2 = 0.065

 k =   0.3333333333  0.5773502692  0.0000000000
==== e(   1) =   -13.10856 eV ==== 
     psi = 0.120*[#   1]+0.120*[#   5]+0.120*[#   9]+0.120*[#  13]+0.064*[#   3]+
          +0.064*[#   4]+0.064*[#   7]+0.064*[#   8]+0.064*[#  11]+0.064*[#  12]+
          +0.064*[#  15]+0.064*[#  16]+
    |psi|^2 = 0.992
==== e(   2) =   -13.09973 eV ==== 
     psi = 0.120*[#   1]+0.120*[#   5]+0.120*[#   9]+0.120*[#  13]+0.065*[#   3]+
          +0.065*[#   7]+0.065*[#  11]+0.065*[#  15]+0.064*[#   4]+0.063*[#   8]+
          +0.064*[#  12]+0.064*[#  16]+
    |psi|^2 = 0.992
==== e(   3) =   -13.03840 eV ==== 
     psi = 0.120*[#   1]+0.120*[#   5]+0.120*[#   9]+0.120*[#  13]+0.065*[#   4]+
          +0.065*[#   8]+0.065*[#  12]+0.065*[#  16]+0.063*[#   3]+0.063*[#   7]+
          +0.063*[#  11]+0.063*[#  15]+
    |psi|^2 = 0.994
==== e(   4) =   -13.02751 eV ==== 
     psi = 0.121*[#   1]+0.121*[#   5]+0.120*[#   9]+0.121*[#  13]+0.064*[#   3]+
          +0.064*[#   4]+0.064*[#   7]+0.064*[#   8]+0.064*[#  11]+0.064*[#  12]+
          +0.064*[#  15]+0.064*[#  16]+
    |psi|^2 = 0.994
==== e(   5) =   -11.06298 eV ==== 
     psi = 0.123*[#   3]+0.123*[#   7]+0.123*[#  11]+0.123*[#  15]+0.122*[#   4]+
          +0.122*[#   8]+0.122*[#  12]+0.122*[#  16]+
    |psi|^2 = 0.979
==== e(   6) =   -11.02005 eV ==== 
     psi = 0.123*[#   4]+0.123*[#   8]+0.123*[#  12]+0.123*[#  16]+0.122*[#   3]+
          +0.122*[#   7]+0.122*[#  11]+0.122*[#  15]+
    |psi|^2 = 0.983
==== e(   7) =    -0.79376 eV ==== 
     psi = 0.248*[#   2]+0.248*[#   6]+0.248*[#  10]+0.248*[#  14]+
    |psi|^2 = 0.993
==== e(   8) =    -0.72729 eV ==== 
     psi = 0.248*[#   2]+0.248*[#   6]+0.248*[#  10]+0.248*[#  14]+
    |psi|^2 = 0.993
==== e(   9) =    -0.27372 eV ==== 
     psi = 0.248*[#   2]+0.248*[#   6]+0.248*[#  10]+0.248*[#  14]+
    |psi|^2 = 0.993
==== e(  10) =    -0.19394 eV ==== 
     psi = 0.248*[#   2]+0.248*[#   6]+0.248*[#  10]+0.248*[#  14]+
    |psi|^2 = 0.994
==== e(  11) =     9.44037 eV ==== 
     psi = 
    |psi|^2 = 0.005
==== e(  12) =    10.78237 eV ==== 
     psi = 0.003*[#   1]+0.003*[#   5]+0.003*[#   9]+0.003*[#  13]+0.001*[#   3]+
          +0.001*[#   7]+0.001*[#  11]+0.001*[#  15]+
    |psi|^2 = 0.021

 k =  -0.0833333333  0.0481125224  0.0000000000
==== e(   1) =   -19.86955 eV ==== 
     psi = 0.231*[#   1]+0.231*[#   5]+0.231*[#   9]+0.231*[#  13]+0.010*[#   3]+
          +0.010*[#   7]+0.010*[#  11]+0.010*[#  15]+0.003*[#   4]+0.003*[#   8]+
          +0.003*[#  12]+0.003*[#  16]+
    |psi|^2 = 0.979
==== e(   2) =   -19.74049 eV ==== 
     psi = 0.233*[#   1]+0.233*[#   5]+0.233*[#   9]+0.233*[#  13]+0.010*[#   3]+
          +0.010*[#   7]+0.010*[#  11]+0.010*[#  15]+0.003*[#   4]+0.003*[#   8]+
          +0.003*[#  12]+0.003*[#  16]+
    |psi|^2 = 0.986
==== e(   3) =    -8.32783 eV ==== 
     psi = 0.238*[#   2]+0.238*[#   6]+0.238*[#  10]+0.238*[#  14]+
    |psi|^2 = 0.954
==== e(   4) =    -7.44650 eV ==== 
     psi = 0.242*[#   2]+0.242*[#   6]+0.242*[#  10]+0.242*[#  14]+
    |psi|^2 = 0.968
==== e(   5) =    -4.21655 eV ==== 
     psi = 0.180*[#  11]+0.181*[#  15]+0.180*[#   3]+0.180*[#   7]+0.061*[#   8]+
          +0.061*[#  12]+0.060*[#   4]+0.060*[#  16]+0.009*[#   1]+0.009*[#  13]+
          +0.009*[#   5]+0.009*[#   9]+
    |psi|^2 = 0.997
==== e(   6) =    -4.20204 eV ==== 
     psi = 0.180*[#   7]+0.180*[#   3]+0.180*[#  11]+0.179*[#  15]+0.062*[#   4]+
          +0.062*[#  16]+0.060*[#   8]+0.060*[#  12]+0.009*[#   5]+0.009*[#   9]+
          +0.008*[#   1]+0.008*[#  13]+
    |psi|^2 = 0.997
==== e(   7) =    -3.90548 eV ==== 
     psi = 0.186*[#  12]+0.186*[#   8]+0.185*[#  16]+0.185*[#   4]+0.064*[#  15]+
          +0.064*[#   3]+0.063*[#  11]+0.063*[#   7]+
    |psi|^2 = 0.997
==== e(   8) =    -3.89574 eV ==== 
     psi = 0.188*[#   4]+0.188*[#  16]+0.187*[#   8]+0.187*[#  12]+0.063*[#   7]+
          +0.063*[#  11]+0.062*[#   3]+0.061*[#  15]+
    |psi|^2 = 0.997
==== e(   9) =     3.13260 eV ==== 
     psi = 0.003*[#   3]+0.003*[#   7]+0.003*[#  11]+0.003*[#  15]+0.001*[#   2]+
          +0.001*[#   4]+0.001*[#   6]+0.001*[#   8]+0.001*[#  10]+0.001*[#  12]+
          +0.001*[#  14]+0.001*[#  16]+
    |psi|^2 = 0.026
==== e(  10) =     3.52379 eV ==== 
     psi = 0.004*[#   2]+0.004*[#   6]+0.004*[#  10]+0.004*[#  14]+
    |psi|^2 = 0.023
==== e(  11) =     4.24707 eV ==== 
     psi = 
    |psi|^2 = 0.005
==== e(  12) =     5.43356 eV ==== 
     psi = 0.001*[#   2]+0.001*[#   6]+0.001*[#  10]+0.001*[#  14]+
    |psi|^2 = 0.008

 k =   0.0833333333  0.0481125224  0.0000000000
==== e(   1) =   -19.86955 eV ==== 
     psi = 0.231*[#   1]+0.231*[#   5]+0.231*[#   9]+0.231*[#  13]+0.010*[#   3]+
          +0.010*[#   7]+0.010*[#  11]+0.010*[#  15]+0.003*[#   4]+0.003*[#   8]+
          +0.003*[#  12]+0.003*[#  16]+
    |psi|^2 = 0.979
==== e(   2) =   -19.74049 eV ==== 
     psi = 0.233*[#   1]+0.233*[#   5]+0.233*[#   9]+0.233*[#  13]+0.010*[#   3]+
          +0.010*[#   7]+0.010*[#  11]+0.010*[#  15]+0.003*[#   4]+0.003*[#   8]+
          +0.003*[#  12]+0.003*[#  16]+
    |psi|^2 = 0.986
==== e(   3) =    -8.32783 eV ==== 
     psi = 0.238*[#   2]+0.238*[#   6]+0.238*[#  10]+0.238*[#  14]+
    |psi|^2 = 0.954
==== e(   4) =    -7.44650 eV ==== 
     psi = 0.242*[#   2]+0.242*[#   6]+0.242*[#  10]+0.242*[#  14]+
    |psi|^2 = 0.968
==== e(   5) =    -4.21655 eV ==== 
     psi = 0.181*[#  11]+0.180*[#  15]+0.180*[#   3]+0.180*[#   7]+0.061*[#   4]+
          +0.061*[#  16]+0.060*[#   8]+0.060*[#  12]+0.009*[#   5]+0.009*[#   9]+
          +0.009*[#   1]+0.009*[#  13]+
    |psi|^2 = 0.997
==== e(   6) =    -4.20204 eV ==== 
     psi = 0.180*[#   3]+0.180*[#   7]+0.180*[#  15]+0.179*[#  11]+0.062*[#   8]+
          +0.062*[#  12]+0.060*[#   4]+0.060*[#  16]+0.009*[#   1]+0.009*[#  13]+
          +0.008*[#   5]+0.008*[#   9]+
    |psi|^2 = 0.997
==== e(   7) =    -3.90548 eV ==== 
     psi = 0.186*[#  16]+0.186*[#   4]+0.185*[#  12]+0.185*[#   8]+0.064*[#  11]+
          +0.064*[#   7]+0.063*[#  15]+0.063*[#   3]+
    |psi|^2 = 0.997
==== e(   8) =    -3.89574 eV ==== 
     psi = 0.188*[#   8]+0.188*[#  12]+0.187*[#   4]+0.187*[#  16]+0.063*[#   3]+
          +0.063*[#  15]+0.062*[#   7]+0.061*[#  11]+
    |psi|^2 = 0.997
==== e(   9) =     3.13260 eV ==== 
     psi = 0.003*[#   3]+0.003*[#   7]+0.003*[#  11]+0.003*[#  15]+0.001*[#   2]+
          +0.001*[#   4]+0.001*[#   6]+0.001*[#   8]+0.001*[#  10]+0.001*[#  12]+
          +0.001*[#  14]+0.001*[#  16]+
    |psi|^2 = 0.026
==== e(  10) =     3.52379 eV ==== 
     psi = 0.004*[#   2]+0.004*[#   6]+0.004*[#  10]+0.004*[#  14]+
    |psi|^2 = 0.023
==== e(  11) =     4.24707 eV ==== 
     psi = 
    |psi|^2 = 0.005
==== e(  12) =     5.43356 eV ==== 
     psi = 0.001*[#   2]+0.001*[#   6]+0.001*[#  10]+0.001*[#  14]+
    |psi|^2 = 0.008

 k =  -0.1666666667  0.0962250449  0.0000000000
==== e(   1) =   -19.37876 eV ==== 
     psi = 0.202*[#   1]+0.202*[#   5]+0.202*[#   9]+0.202*[#  13]+0.032*[#   3]+
          +0.032*[#   7]+0.032*[#  11]+0.032*[#  15]+0.011*[#   4]+0.011*[#   8]+
          +0.011*[#  12]+0.011*[#  16]+
    |psi|^2 = 0.978
==== e(   2) =   -19.25361 eV ==== 
     psi = 0.205*[#   1]+0.205*[#   5]+0.205*[#   9]+0.205*[#  13]+0.031*[#   3]+
          +0.031*[#   7]+0.031*[#  11]+0.031*[#  15]+0.010*[#   4]+0.010*[#   8]+
          +0.010*[#  12]+0.010*[#  16]+
    |psi|^2 = 0.985
==== e(   3) =    -7.73905 eV ==== 
     psi = 0.241*[#   2]+0.241*[#  14]+0.241*[#   6]+0.241*[#  10]+
    |psi|^2 = 0.965
==== e(   4) =    -6.87528 eV ==== 
     psi = 0.244*[#   6]+0.244*[#  10]+0.244*[#   2]+0.244*[#  14]+
    |psi|^2 = 0.977
==== e(   5) =    -5.85122 eV ==== 
     psi = 0.167*[#  11]+0.167*[#   7]+0.164*[#  15]+0.164*[#   3]+0.056*[#   8]+
          +0.056*[#  12]+0.054*[#   4]+0.054*[#  16]+0.028*[#   1]+0.028*[#  13]+
          +0.028*[#   5]+0.028*[#   9]+
    |psi|^2 = 0.995
==== e(   6) =    -5.82205 eV ==== 
     psi = 0.167*[#   3]+0.167*[#  15]+0.164*[#   7]+0.164*[#  11]+0.056*[#   4]+
          +0.056*[#  16]+0.055*[#   8]+0.055*[#  12]+0.028*[#   5]+0.028*[#   9]+
          +0.028*[#   1]+0.028*[#  13]+
    |psi|^2 = 0.995
==== e(   7) =    -4.69492 eV ==== 
     psi = 0.187*[#  12]+0.187*[#   8]+0.187*[#  16]+0.186*[#   4]+0.063*[#   3]+
          +0.063*[#  15]+0.062*[#   7]+0.062*[#  11]+
    |psi|^2 = 0.997
==== e(   8) =    -4.68244 eV ==== 
     psi = 0.187*[#   4]+0.187*[#  16]+0.187*[#   8]+0.187*[#  12]+0.063*[#   7]+
          +0.063*[#  11]+0.062*[#   3]+0.062*[#  15]+
    |psi|^2 = 0.997
==== e(   9) =     3.79446 eV ==== 
     psi = 0.007*[#   3]+0.007*[#   7]+0.007*[#  11]+0.007*[#  15]+0.002*[#   4]+
          +0.002*[#   8]+0.002*[#  12]+0.002*[#  16]+
    |psi|^2 = 0.041
==== e(  10) =     4.19220 eV ==== 
     psi = 0.003*[#   2]+0.003*[#  14]+0.003*[#   6]+0.003*[#  10]+0.002*[#   3]+
          +0.002*[#   7]+0.002*[#  11]+0.002*[#  15]+
    |psi|^2 = 0.024
==== e(  11) =     4.92385 eV ==== 
     psi = 0.001*[#   3]+0.001*[#   7]+0.001*[#  11]+0.001*[#  15]+
    |psi|^2 = 0.007
==== e(  12) =     6.10399 eV ==== 
     psi = 0.001*[#   2]+0.001*[#  14]+
    |psi|^2 = 0.007

 k =   0.1666666667  0.0962250449  0.0000000000
==== e(   1) =   -19.37876 eV ==== 
     psi = 0.202*[#   1]+0.202*[#   5]+0.202*[#   9]+0.202*[#  13]+0.032*[#   3]+
          +0.032*[#   7]+0.032*[#  11]+0.032*[#  15]+0.011*[#   4]+0.011*[#   8]+
          +0.011*[#  12]+0.011*[#  16]+
    |psi|^2 = 0.978
==== e(   2) =   -19.25361 eV ==== 
     psi = 0.205*[#   1]+0.205*[#   5]+0.205*[#   9]+0.205*[#  13]+0.031*[#   3]+
          +0.031*[#   7]+0.031*[#  11]+0.031*[#  15]+0.010*[#   4]+0.010*[#   8]+
          +0.010*[#  12]+0.010*[#  16]+
    |psi|^2 = 0.985
==== e(   3) =    -7.73905 eV ==== 
     psi = 0.241*[#   6]+0.241*[#  10]+0.241*[#   2]+0.241*[#  14]+
    |psi|^2 = 0.965
==== e(   4) =    -6.87528 eV ==== 
     psi = 0.244*[#   2]+0.244*[#  14]+0.244*[#   6]+0.244*[#  10]+
    |psi|^2 = 0.977
==== e(   5) =    -5.85122 eV ==== 
     psi = 0.167*[#  15]+0.167*[#   3]+0.164*[#  11]+0.164*[#   7]+0.056*[#   4]+
          +0.056*[#  16]+0.054*[#   8]+0.054*[#  12]+0.028*[#   5]+0.028*[#   9]+
          +0.028*[#   1]+0.028*[#  13]+
    |psi|^2 = 0.995
==== e(   6) =    -5.82205 eV ==== 
     psi = 0.167*[#   7]+0.167*[#  11]+0.164*[#   3]+0.164*[#  15]+0.056*[#   8]+
          +0.056*[#  12]+0.055*[#   4]+0.055*[#  16]+0.028*[#   1]+0.028*[#  13]+
          +0.028*[#   5]+0.028*[#   9]+
    |psi|^2 = 0.995
==== e(   7) =    -4.69492 eV ==== 
     psi = 0.187*[#  16]+0.187*[#   4]+0.187*[#  12]+0.186*[#   8]+0.063*[#   7]+
          +0.063*[#  11]+0.062*[#   3]+0.062*[#  15]+
    |psi|^2 = 0.997
==== e(   8) =    -4.68244 eV ==== 
     psi = 0.187*[#   8]+0.187*[#  12]+0.187*[#   4]+0.187*[#  16]+0.063*[#   3]+
          +0.063*[#  15]+0.062*[#   7]+0.062*[#  11]+
    |psi|^2 = 0.997
==== e(   9) =     3.79446 eV ==== 
     psi = 0.007*[#   3]+0.007*[#   7]+0.007*[#  11]+0.007*[#  15]+0.002*[#   4]+
          +0.002*[#   8]+0.002*[#  12]+0.002*[#  16]+
    |psi|^2 = 0.041
==== e(  10) =     4.19220 eV ==== 
     psi = 0.003*[#   6]+0.003*[#  10]+0.003*[#   2]+0.003*[#  14]+0.002*[#   3]+
          +0.002*[#   7]+0.002*[#  11]+0.002*[#  15]+
    |psi|^2 = 0.024
==== e(  11) =     4.92385 eV ==== 
     psi = 0.001*[#   3]+0.001*[#   7]+0.001*[#  11]+0.001*[#  15]+
    |psi|^2 = 0.007
==== e(  12) =     6.10399 eV ==== 
     psi = 0.001*[#   6]+0.001*[#  10]+
    |psi|^2 = 0.007

 k =  -0.2500000000  0.1443375673  0.0000000000
==== e(   1) =   -18.56726 eV ==== 
     psi = 0.174*[#   1]+0.174*[#   9]+0.174*[#  13]+0.174*[#   5]+0.053*[#   7]+
          +0.053*[#  11]+0.053*[#   3]+0.053*[#  15]+0.018*[#   4]+0.018*[#   8]+
          +0.018*[#  12]+0.018*[#  16]+
    |psi|^2 = 0.977
==== e(   2) =   -18.44850 eV ==== 
     psi = 0.177*[#   1]+0.177*[#   5]+0.177*[#   9]+0.177*[#  13]+0.052*[#   3]+
          +0.052*[#   7]+0.052*[#  11]+0.052*[#  15]+0.017*[#   4]+0.017*[#   8]+
          +0.017*[#  12]+0.017*[#  16]+
    |psi|^2 = 0.984
==== e(   3) =    -7.94587 eV ==== 
     psi = 0.152*[#   7]+0.152*[#  11]+0.148*[#   3]+0.148*[#  15]+0.051*[#   8]+
          +0.051*[#  12]+0.049*[#   4]+0.049*[#  16]+0.049*[#   1]+0.049*[#  13]+
          +0.048*[#   5]+0.048*[#   9]+
    |psi|^2 = 0.992
==== e(   4) =    -7.90177 eV ==== 
     psi = 0.152*[#   3]+0.152*[#  15]+0.148*[#   7]+0.148*[#  11]+0.051*[#   4]+
          +0.051*[#  16]+0.049*[#   8]+0.049*[#  12]+0.049*[#   5]+0.049*[#   9]+
          +0.048*[#   1]+0.048*[#  13]+
    |psi|^2 = 0.993
==== e(   5) =    -6.77693 eV ==== 
     psi = 0.245*[#   2]+0.245*[#  14]+0.244*[#   6]+0.244*[#  10]+
    |psi|^2 = 0.979
==== e(   6) =    -5.94603 eV ==== 
     psi = 0.247*[#   6]+0.247*[#  10]+0.246*[#   2]+0.246*[#  14]+
    |psi|^2 = 0.987
==== e(   7) =    -5.57119 eV ==== 
     psi = 0.187*[#  12]+0.187*[#   8]+0.187*[#  16]+0.187*[#   4]+0.063*[#   3]+
          +0.063*[#  15]+0.062*[#   7]+0.062*[#  11]+
    |psi|^2 = 0.997
==== e(   8) =    -5.55670 eV ==== 
     psi = 0.187*[#   4]+0.187*[#  16]+0.187*[#   8]+0.187*[#  12]+0.063*[#   7]+
          +0.063*[#  11]+0.062*[#   3]+0.062*[#  15]+
    |psi|^2 = 0.997
==== e(   9) =     4.89344 eV ==== 
     psi = 0.006*[#   3]+0.006*[#   7]+0.006*[#  11]+0.006*[#  15]+0.002*[#   4]+
          +0.002*[#   8]+0.002*[#  12]+0.002*[#  16]+
    |psi|^2 = 0.035
==== e(  10) =     5.29259 eV ==== 
     psi = 0.004*[#   2]+0.004*[#  14]+0.003*[#   6]+0.003*[#  10]+0.002*[#   3]+
          +0.002*[#   7]+0.002*[#  11]+0.002*[#  15]+
    |psi|^2 = 0.025
==== e(  11) =     6.04856 eV ==== 
     psi = 
    |psi|^2 = 0.006
==== e(  12) =     6.51699 eV ==== 
     psi = 0.232*[#   6]+0.232*[#  10]+0.222*[#   2]+0.222*[#  14]+
    |psi|^2 = 0.909

 k =   0.2500000000  0.1443375673  0.0000000000
==== e(   1) =   -18.56726 eV ==== 
     psi = 0.174*[#   9]+0.174*[#   1]+0.174*[#   5]+0.174*[#  13]+0.053*[#   3]+
          +0.053*[#  15]+0.053*[#   7]+0.053*[#  11]+0.018*[#   4]+0.018*[#   8]+
          +0.018*[#  12]+0.018*[#  16]+
    |psi|^2 = 0.977
==== e(   2) =   -18.44850 eV ==== 
     psi = 0.177*[#   1]+0.177*[#   5]+0.177*[#   9]+0.177*[#  13]+0.052*[#   3]+
          +0.052*[#   7]+0.052*[#  11]+0.052*[#  15]+0.017*[#   4]+0.017*[#   8]+
          +0.017*[#  12]+0.017*[#  16]+
    |psi|^2 = 0.984
==== e(   3) =    -7.94587 eV ==== 
     psi = 0.152*[#   3]+0.152*[#  15]+0.148*[#   7]+0.148*[#  11]+0.051*[#   4]+
          +0.051*[#  16]+0.049*[#   8]+0.049*[#  12]+0.049*[#   5]+0.049*[#   9]+
          +0.048*[#   1]+0.048*[#  13]+
    |psi|^2 = 0.992
==== e(   4) =    -7.90177 eV ==== 
     psi = 0.152*[#   7]+0.152*[#  11]+0.148*[#   3]+0.148*[#  15]+0.051*[#   8]+
          +0.051*[#  12]+0.049*[#   4]+0.049*[#  16]+0.049*[#   1]+0.049*[#  13]+
          +0.048*[#   5]+0.048*[#   9]+
    |psi|^2 = 0.993
==== e(   5) =    -6.77693 eV ==== 
     psi = 0.245*[#   6]+0.245*[#  10]+0.244*[#   2]+0.244*[#  14]+
    |psi|^2 = 0.979
==== e(   6) =    -5.94603 eV ==== 
     psi = 0.247*[#   2]+0.247*[#  14]+0.246*[#   6]+0.246*[#  10]+
    |psi|^2 = 0.987
==== e(   7) =    -5.57119 eV ==== 
     psi = 0.187*[#  16]+0.187*[#   4]+0.187*[#  12]+0.187*[#   8]+0.063*[#   7]+
          +0.063*[#  11]+0.062*[#   3]+0.062*[#  15]+
    |psi|^2 = 0.997
==== e(   8) =    -5.55670 eV ==== 
     psi = 0.187*[#   8]+0.187*[#  12]+0.187*[#   4]+0.187*[#  16]+0.063*[#   3]+
          +0.063*[#  15]+0.062*[#   7]+0.062*[#  11]+
    |psi|^2 = 0.997
==== e(   9) =     4.89344 eV ==== 
     psi = 0.006*[#   3]+0.006*[#   7]+0.006*[#  11]+0.006*[#  15]+0.002*[#   4]+
          +0.002*[#   8]+0.002*[#  12]+0.002*[#  16]+
    |psi|^2 = 0.035
==== e(  10) =     5.29259 eV ==== 
     psi = 0.004*[#   6]+0.004*[#  10]+0.003*[#   2]+0.003*[#  14]+0.002*[#   3]+
          +0.002*[#   7]+0.002*[#  11]+0.002*[#  15]+
    |psi|^2 = 0.025
==== e(  11) =     6.04856 eV ==== 
     psi = 
    |psi|^2 = 0.006
==== e(  12) =     6.51699 eV ==== 
     psi = 0.232*[#   2]+0.232*[#  14]+0.222*[#   6]+0.222*[#  10]+
    |psi|^2 = 0.909

 k =  -0.3333333333  0.1924500897  0.0000000000
==== e(   1) =   -17.44732 eV ==== 
     psi = 0.152*[#   1]+0.152*[#  13]+0.152*[#   5]+0.152*[#   9]+0.069*[#   7]+
          +0.069*[#  11]+0.069*[#   3]+0.069*[#  15]+0.023*[#   8]+0.023*[#  12]+
          +0.023*[#   4]+0.023*[#  16]+
    |psi|^2 = 0.978
==== e(   2) =   -17.33725 eV ==== 
     psi = 0.155*[#   5]+0.155*[#   9]+0.155*[#   1]+0.155*[#  13]+0.068*[#   3]+
          +0.068*[#  15]+0.068*[#   7]+0.068*[#  11]+0.023*[#   4]+0.023*[#  16]+
          +0.023*[#   8]+0.023*[#  12]+
    |psi|^2 = 0.984
==== e(   3) =   -10.14635 eV ==== 
     psi = 0.138*[#   7]+0.138*[#  11]+0.135*[#   3]+0.135*[#  15]+0.066*[#   1]+
          +0.066*[#  13]+0.065*[#   5]+0.065*[#   9]+0.046*[#   8]+0.046*[#  12]+
          +0.045*[#   4]+0.045*[#  16]+
    |psi|^2 = 0.990
==== e(   4) =   -10.08780 eV ==== 
     psi = 0.138*[#   3]+0.138*[#  15]+0.135*[#   7]+0.135*[#  11]+0.066*[#   5]+
          +0.066*[#   9]+0.066*[#   1]+0.066*[#  13]+0.046*[#   4]+0.046*[#  16]+
          +0.045*[#   8]+0.045*[#  12]+
    |psi|^2 = 0.991
==== e(   5) =    -6.30164 eV ==== 
     psi = 0.187*[#  12]+0.187*[#   8]+0.187*[#  16]+0.187*[#   4]+0.062*[#   3]+
          +0.062*[#  15]+0.062*[#   7]+0.062*[#  11]+
    |psi|^2 = 0.996
==== e(   6) =    -6.28590 eV ==== 
     psi = 0.187*[#   4]+0.187*[#   8]+0.187*[#  16]+0.187*[#  12]+0.062*[#   7]+
          +0.062*[#  11]+0.062*[#   3]+0.062*[#  15]+
    |psi|^2 = 0.997
==== e(   7) =    -5.48741 eV ==== 
     psi = 0.249*[#   2]+0.249*[#  14]+0.247*[#   6]+0.247*[#  10]+
    |psi|^2 = 0.991
==== e(   8) =    -4.71413 eV ==== 
     psi = 0.250*[#   6]+0.250*[#  10]+0.247*[#   2]+0.247*[#  14]+
    |psi|^2 = 0.994
==== e(   9) =     4.15050 eV ==== 
     psi = 0.235*[#   2]+0.235*[#  14]+0.232*[#   6]+0.232*[#  10]+
    |psi|^2 = 0.934
==== e(  10) =     4.64960 eV ==== 
     psi = 0.237*[#   6]+0.237*[#  10]+0.234*[#   2]+0.234*[#  14]+
    |psi|^2 = 0.943
==== e(  11) =     6.40829 eV ==== 
     psi = 0.004*[#   1]+0.004*[#   5]+0.004*[#   9]+0.004*[#  13]+
    |psi|^2 = 0.022
==== e(  12) =     6.86553 eV ==== 
     psi = 0.005*[#   5]+0.005*[#   9]+0.005*[#   1]+0.005*[#  13]+0.003*[#   2]+
          +0.003*[#  14]+0.003*[#   6]+0.003*[#  10]+
    |psi|^2 = 0.034

 k =   0.3333333333  0.1924500897  0.0000000000
==== e(   1) =   -17.44732 eV ==== 
     psi = 0.152*[#   5]+0.152*[#   9]+0.152*[#   1]+0.152*[#  13]+0.069*[#   3]+
          +0.069*[#  15]+0.069*[#   7]+0.069*[#  11]+0.023*[#   4]+0.023*[#  16]+
          +0.023*[#   8]+0.023*[#  12]+
    |psi|^2 = 0.978
==== e(   2) =   -17.33725 eV ==== 
     psi = 0.155*[#   1]+0.155*[#  13]+0.155*[#   5]+0.155*[#   9]+0.068*[#   7]+
          +0.068*[#  11]+0.068*[#   3]+0.068*[#  15]+0.023*[#   8]+0.023*[#  12]+
          +0.023*[#   4]+0.023*[#  16]+
    |psi|^2 = 0.984
==== e(   3) =   -10.14635 eV ==== 
     psi = 0.138*[#   3]+0.138*[#  15]+0.135*[#   7]+0.135*[#  11]+0.066*[#   5]+
          +0.066*[#   9]+0.065*[#   1]+0.065*[#  13]+0.046*[#   4]+0.046*[#  16]+
          +0.045*[#   8]+0.045*[#  12]+
    |psi|^2 = 0.990
==== e(   4) =   -10.08780 eV ==== 
     psi = 0.138*[#   7]+0.138*[#  11]+0.135*[#   3]+0.135*[#  15]+0.066*[#   1]+
          +0.066*[#  13]+0.066*[#   5]+0.066*[#   9]+0.046*[#   8]+0.046*[#  12]+
          +0.045*[#   4]+0.045*[#  16]+
    |psi|^2 = 0.991
==== e(   5) =    -6.30164 eV ==== 
     psi = 0.187*[#  16]+0.187*[#   4]+0.187*[#  12]+0.187*[#   8]+0.062*[#   7]+
          +0.062*[#  11]+0.062*[#   3]+0.062*[#  15]+
    |psi|^2 = 0.996
==== e(   6) =    -6.28590 eV ==== 
     psi = 0.187*[#   8]+0.187*[#   4]+0.187*[#  12]+0.187*[#  16]+0.062*[#   3]+
          +0.062*[#  15]+0.062*[#   7]+0.062*[#  11]+
    |psi|^2 = 0.997
==== e(   7) =    -5.48741 eV ==== 
     psi = 0.249*[#   6]+0.249*[#  10]+0.247*[#   2]+0.247*[#  14]+
    |psi|^2 = 0.991
==== e(   8) =    -4.71413 eV ==== 
     psi = 0.250*[#   2]+0.250*[#  14]+0.247*[#   6]+0.247*[#  10]+
    |psi|^2 = 0.994
==== e(   9) =     4.15050 eV ==== 
     psi = 0.235*[#   6]+0.235*[#  10]+0.232*[#   2]+0.232*[#  14]+
    |psi|^2 = 0.934
==== e(  10) =     4.64960 eV ==== 
     psi = 0.237*[#   2]+0.237*[#  14]+0.234*[#   6]+0.234*[#  10]+
    |psi|^2 = 0.943
==== e(  11) =     6.40829 eV ==== 
     psi = 0.004*[#   1]+0.004*[#   5]+0.004*[#   9]+0.004*[#  13]+
    |psi|^2 = 0.022
==== e(  12) =     6.86553 eV ==== 
     psi = 0.005*[#   1]+0.005*[#  13]+0.005*[#   5]+0.005*[#   9]+0.003*[#   6]+
          +0.003*[#  10]+0.003*[#   2]+0.003*[#  14]+
    |psi|^2 = 0.034

 k =  -0.4166666667  0.2405626122  0.0000000000
==== e(   1) =   -16.05017 eV ==== 
     psi = 0.139*[#   1]+0.139*[#  13]+0.138*[#   5]+0.138*[#   9]+0.080*[#   7]+
          +0.080*[#  11]+0.079*[#   3]+0.079*[#  15]+0.027*[#   8]+0.027*[#  12]+
          +0.026*[#   4]+0.026*[#  16]+
    |psi|^2 = 0.982
==== e(   2) =   -15.95129 eV ==== 
     psi = 0.142*[#   5]+0.142*[#   9]+0.141*[#   1]+0.141*[#  13]+0.080*[#   3]+
          +0.080*[#  15]+0.079*[#   7]+0.078*[#  11]+0.027*[#   4]+0.027*[#  16]+
          +0.026*[#   8]+0.026*[#  12]+
    |psi|^2 = 0.987
==== e(   3) =   -12.24448 eV ==== 
     psi = 0.128*[#   7]+0.128*[#  11]+0.126*[#   3]+0.126*[#  15]+0.078*[#   1]+
          +0.078*[#  13]+0.077*[#   5]+0.077*[#   9]+0.043*[#   8]+0.043*[#  12]+
          +0.042*[#   4]+0.042*[#  16]+
    |psi|^2 = 0.986
==== e(   4) =   -12.17324 eV ==== 
     psi = 0.128*[#   3]+0.128*[#  15]+0.126*[#   7]+0.126*[#  11]+0.078*[#   5]+
          +0.078*[#   9]+0.077*[#   1]+0.077*[#  13]+0.043*[#   4]+0.043*[#  16]+
          +0.042*[#   8]+0.042*[#  12]+
    |psi|^2 = 0.988
==== e(   5) =    -6.77272 eV ==== 
     psi = 0.187*[#  12]+0.187*[#   8]+0.187*[#  16]+0.187*[#   4]+0.062*[#   3]+
          +0.062*[#  15]+0.062*[#   7]+0.062*[#  11]+
    |psi|^2 = 0.996
==== e(   6) =    -6.75631 eV ==== 
     psi = 0.187*[#   4]+0.187*[#   8]+0.187*[#  16]+0.187*[#  12]+0.062*[#   7]+
          +0.062*[#  11]+0.062*[#   3]+0.062*[#  15]+
    |psi|^2 = 0.996
==== e(   7) =    -4.01752 eV ==== 
     psi = 0.255*[#   2]+0.255*[#  14]+0.243*[#   6]+0.243*[#  10]+
    |psi|^2 = 0.996
==== e(   8) =    -3.36233 eV ==== 
     psi = 0.257*[#   6]+0.257*[#  10]+0.241*[#   2]+0.241*[#  14]+
    |psi|^2 = 0.997
==== e(   9) =     1.98668 eV ==== 
     psi = 0.246*[#   2]+0.246*[#  14]+0.225*[#   6]+0.225*[#  10]+
    |psi|^2 = 0.942
==== e(  10) =     2.57265 eV ==== 
     psi = 0.246*[#   6]+0.246*[#  10]+0.229*[#   2]+0.229*[#  14]+
    |psi|^2 = 0.950
==== e(  11) =     6.89343 eV ==== 
     psi = 0.160*[#   5]+0.160*[#   9]+0.158*[#   1]+0.158*[#  13]+0.043*[#   7]+
          +0.043*[#  11]+0.042*[#   3]+0.042*[#  15]+0.014*[#   8]+0.014*[#  12]+
          +0.014*[#   4]+0.014*[#  16]+
    |psi|^2 = 0.864
==== e(  12) =     7.01950 eV ==== 
     psi = 0.161*[#   1]+0.161*[#  13]+0.159*[#   5]+0.159*[#   9]+0.046*[#   3]+
          +0.046*[#  15]+0.045*[#   7]+0.045*[#  11]+0.015*[#   4]+0.015*[#  16]+
          +0.015*[#   8]+0.015*[#  12]+
    |psi|^2 = 0.882

 k =   0.4166666667  0.2405626122  0.0000000000
==== e(   1) =   -16.05017 eV ==== 
     psi = 0.139*[#   5]+0.139*[#   9]+0.138*[#   1]+0.138*[#  13]+0.080*[#   3]+
          +0.080*[#  15]+0.079*[#   7]+0.079*[#  11]+0.027*[#   4]+0.027*[#  16]+
          +0.026*[#   8]+0.026*[#  12]+
    |psi|^2 = 0.982
==== e(   2) =   -15.95129 eV ==== 
     psi = 0.142*[#   1]+0.142*[#  13]+0.141*[#   5]+0.141*[#   9]+0.080*[#   7]+
          +0.080*[#  11]+0.079*[#   3]+0.078*[#  15]+0.027*[#   8]+0.027*[#  12]+
          +0.026*[#   4]+0.026*[#  16]+
    |psi|^2 = 0.987
==== e(   3) =   -12.24448 eV ==== 
     psi = 0.128*[#   3]+0.128*[#  15]+0.126*[#   7]+0.126*[#  11]+0.078*[#   5]+
          +0.078*[#   9]+0.077*[#   1]+0.077*[#  13]+0.043*[#   4]+0.043*[#  16]+
          +0.042*[#   8]+0.042*[#  12]+
    |psi|^2 = 0.986
==== e(   4) =   -12.17324 eV ==== 
     psi = 0.128*[#   7]+0.128*[#  11]+0.126*[#   3]+0.126*[#  15]+0.078*[#   1]+
          +0.078*[#  13]+0.077*[#   5]+0.077*[#   9]+0.043*[#   8]+0.043*[#  12]+
          +0.042*[#   4]+0.042*[#  16]+
    |psi|^2 = 0.988
==== e(   5) =    -6.77272 eV ==== 
     psi = 0.187*[#  16]+0.187*[#   4]+0.187*[#  12]+0.187*[#   8]+0.062*[#   7]+
          +0.062*[#  11]+0.062*[#   3]+0.062*[#  15]+
    |psi|^2 = 0.996
==== e(   6) =    -6.75631 eV ==== 
     psi = 0.187*[#   8]+0.187*[#   4]+0.187*[#  12]+0.187*[#  16]+0.062*[#   3]+
          +0.062*[#  15]+0.062*[#   7]+0.062*[#  11]+
    |psi|^2 = 0.996
==== e(   7) =    -4.01752 eV ==== 
     psi = 0.255*[#   6]+0.255*[#  10]+0.243*[#   2]+0.243*[#  14]+
    |psi|^2 = 0.996
==== e(   8) =    -3.36233 eV ==== 
     psi = 0.257*[#   2]+0.257*[#  14]+0.241*[#   6]+0.241*[#  10]+
    |psi|^2 = 0.997
==== e(   9) =     1.98668 eV ==== 
     psi = 0.246*[#   6]+0.246*[#  10]+0.225*[#   2]+0.225*[#  14]+
    |psi|^2 = 0.942
==== e(  10) =     2.57265 eV ==== 
     psi = 0.246*[#   2]+0.246*[#  14]+0.229*[#   6]+0.229*[#  10]+
    |psi|^2 = 0.950
==== e(  11) =     6.89343 eV ==== 
     psi = 0.160*[#   1]+0.160*[#  13]+0.158*[#   5]+0.158*[#   9]+0.043*[#   3]+
          +0.043*[#  15]+0.042*[#   7]+0.042*[#  11]+0.014*[#   4]+0.014*[#  16]+
          +0.014*[#   8]+0.014*[#  12]+
    |psi|^2 = 0.864
==== e(  12) =     7.01950 eV ==== 
     psi = 0.161*[#   5]+0.161*[#   9]+0.159*[#   1]+0.159*[#  13]+0.046*[#   7]+
          +0.046*[#  11]+0.045*[#   3]+0.045*[#  15]+0.015*[#   8]+0.015*[#  12]+
          +0.015*[#   4]+0.015*[#  16]+
    |psi|^2 = 0.882

 k =   0.5000000000 -0.2886751346  0.0000000000
==== e(   1) =   -14.77800 eV ==== 
     psi = 0.165*[#   1]+0.165*[#  13]+0.155*[#   5]+0.155*[#   9]+0.072*[#   7]+
          +0.072*[#  11]+0.060*[#   3]+0.060*[#  15]+0.024*[#   8]+0.024*[#  12]+
          +0.020*[#   4]+0.020*[#  16]+
    |psi|^2 = 0.992
==== e(   2) =   -14.70841 eV ==== 
     psi = 0.167*[#   5]+0.167*[#   9]+0.155*[#   1]+0.155*[#  13]+0.072*[#   3]+
          +0.072*[#  15]+0.059*[#   7]+0.059*[#  11]+0.024*[#   4]+0.024*[#  16]+
          +0.020*[#   8]+0.020*[#  12]+
    |psi|^2 = 0.993
==== e(   3) =   -13.73602 eV ==== 
     psi = 0.147*[#   7]+0.147*[#  11]+0.135*[#   3]+0.135*[#  15]+0.063*[#   1]+
          +0.063*[#  13]+0.050*[#   5]+0.050*[#   9]+0.049*[#   8]+0.049*[#  12]+
          +0.045*[#   4]+0.045*[#  16]+
    |psi|^2 = 0.976
==== e(   4) =   -13.67919 eV ==== 
     psi = 0.147*[#   3]+0.147*[#  15]+0.136*[#   7]+0.136*[#  11]+0.063*[#   5]+
          +0.063*[#   9]+0.051*[#   1]+0.051*[#  13]+0.049*[#   4]+0.049*[#  16]+
          +0.045*[#   8]+0.045*[#  12]+
    |psi|^2 = 0.980
==== e(   5) =    -6.93447 eV ==== 
     psi = 0.187*[#  12]+0.187*[#   8]+0.187*[#  16]+0.186*[#   4]+0.062*[#   3]+
          +0.062*[#  15]+0.062*[#   7]+0.062*[#  11]+
    |psi|^2 = 0.996
==== e(   6) =    -6.91790 eV ==== 
     psi = 0.187*[#   4]+0.187*[#   8]+0.187*[#  16]+0.187*[#  12]+0.062*[#   7]+
          +0.062*[#  11]+0.062*[#   3]+0.062*[#  15]+
    |psi|^2 = 0.996
==== e(   7) =    -3.09204 eV ==== 
     psi = 0.272*[#   2]+0.272*[#  14]+0.227*[#   6]+0.227*[#  10]+
    |psi|^2 = 0.998
==== e(   8) =    -2.63024 eV ==== 
     psi = 0.279*[#   6]+0.279*[#  10]+0.220*[#   2]+0.220*[#  14]+
    |psi|^2 = 0.998
==== e(   9) =     0.91083 eV ==== 
     psi = 0.265*[#   2]+0.265*[#  14]+0.207*[#   6]+0.207*[#  10]+
    |psi|^2 = 0.945
==== e(  10) =     1.48720 eV ==== 
     psi = 0.260*[#   6]+0.260*[#  10]+0.216*[#   2]+0.216*[#  14]+
    |psi|^2 = 0.952
==== e(  11) =     6.81576 eV ==== 
     psi = 0.168*[#   5]+0.168*[#   9]+0.166*[#   1]+0.166*[#  13]+0.040*[#   7]+
          +0.040*[#  11]+0.039*[#   3]+0.039*[#  15]+0.013*[#   4]+0.013*[#   8]+
          +0.013*[#  12]+0.013*[#  16]+
    |psi|^2 = 0.881
==== e(  12) =     6.94020 eV ==== 
     psi = 0.168*[#   1]+0.168*[#  13]+0.166*[#   5]+0.166*[#   9]+0.041*[#   3]+
          +0.041*[#  15]+0.040*[#   7]+0.040*[#  11]+0.014*[#   4]+0.014*[#   8]+
          +0.014*[#  12]+0.014*[#  16]+
    |psi|^2 = 0.887

 k =  -0.5000000000 -0.2886751346  0.0000000000
==== e(   1) =   -14.77800 eV ==== 
     psi = 0.165*[#   5]+0.165*[#   9]+0.155*[#   1]+0.155*[#  13]+0.072*[#   3]+
          +0.072*[#  15]+0.060*[#   7]+0.060*[#  11]+0.024*[#   4]+0.024*[#  16]+
          +0.020*[#   8]+0.020*[#  12]+
    |psi|^2 = 0.992
==== e(   2) =   -14.70841 eV ==== 
     psi = 0.167*[#   1]+0.167*[#  13]+0.155*[#   5]+0.155*[#   9]+0.072*[#   7]+
          +0.072*[#  11]+0.059*[#   3]+0.059*[#  15]+0.024*[#   8]+0.024*[#  12]+
          +0.020*[#   4]+0.020*[#  16]+
    |psi|^2 = 0.993
==== e(   3) =   -13.73602 eV ==== 
     psi = 0.147*[#   3]+0.147*[#  15]+0.135*[#   7]+0.135*[#  11]+0.063*[#   5]+
          +0.063*[#   9]+0.050*[#   1]+0.050*[#  13]+0.049*[#   4]+0.049*[#  16]+
          +0.045*[#   8]+0.045*[#  12]+
    |psi|^2 = 0.976
==== e(   4) =   -13.67919 eV ==== 
     psi = 0.147*[#   7]+0.147*[#  11]+0.136*[#   3]+0.136*[#  15]+0.063*[#   1]+
          +0.063*[#  13]+0.051*[#   5]+0.051*[#   9]+0.049*[#   8]+0.049*[#  12]+
          +0.045*[#   4]+0.045*[#  16]+
    |psi|^2 = 0.980
==== e(   5) =    -6.93447 eV ==== 
     psi = 0.187*[#  16]+0.187*[#   4]+0.187*[#  12]+0.186*[#   8]+0.062*[#   7]+
          +0.062*[#  11]+0.062*[#   3]+0.062*[#  15]+
    |psi|^2 = 0.996
==== e(   6) =    -6.91790 eV ==== 
     psi = 0.187*[#   8]+0.187*[#   4]+0.187*[#  12]+0.187*[#  16]+0.062*[#   3]+
          +0.062*[#  15]+0.062*[#   7]+0.062*[#  11]+
    |psi|^2 = 0.996
==== e(   7) =    -3.09204 eV ==== 
     psi = 0.272*[#   6]+0.272*[#  10]+0.227*[#   2]+0.227*[#  14]+
    |psi|^2 = 0.998
==== e(   8) =    -2.63024 eV ==== 
     psi = 0.279*[#   2]+0.279*[#  14]+0.220*[#   6]+0.220*[#  10]+
    |psi|^2 = 0.998
==== e(   9) =     0.91083 eV ==== 
     psi = 0.265*[#   6]+0.265*[#  10]+0.207*[#   2]+0.207*[#  14]+
    |psi|^2 = 0.945
==== e(  10) =     1.48720 eV ==== 
     psi = 0.260*[#   2]+0.260*[#  14]+0.216*[#   6]+0.216*[#  10]+
    |psi|^2 = 0.952
==== e(  11) =     6.81576 eV ==== 
     psi = 0.168*[#   1]+0.168*[#  13]+0.166*[#   5]+0.166*[#   9]+0.040*[#   3]+
          +0.040*[#  15]+0.039*[#   7]+0.039*[#  11]+0.013*[#   4]+0.013*[#   8]+
          +0.013*[#  12]+0.013*[#  16]+
    |psi|^2 = 0.881
==== e(  12) =     6.94020 eV ==== 
     psi = 0.168*[#   5]+0.168*[#   9]+0.166*[#   1]+0.166*[#  13]+0.041*[#   7]+
          +0.041*[#  11]+0.040*[#   3]+0.040*[#  15]+0.014*[#   4]+0.014*[#   8]+
          +0.014*[#  12]+0.014*[#  16]+
    |psi|^2 = 0.887

 k =  -0.0833333333  0.1443375673  0.0000000000
==== e(   1) =   -19.54209 eV ==== 
     psi = 0.210*[#   1]+0.210*[#   5]+0.210*[#   9]+0.210*[#  13]+0.026*[#   4]+
          +0.026*[#   8]+0.026*[#  12]+0.026*[#  16]+0.009*[#   3]+0.009*[#   7]+
          +0.009*[#  11]+0.009*[#  15]+
    |psi|^2 = 0.978
==== e(   2) =   -19.41560 eV ==== 
     psi = 0.213*[#   1]+0.213*[#   5]+0.213*[#   9]+0.213*[#  13]+0.025*[#   4]+
          +0.025*[#   8]+0.025*[#  12]+0.025*[#  16]+0.008*[#   3]+0.008*[#   7]+
          +0.008*[#  11]+0.008*[#  15]+
    |psi|^2 = 0.985
==== e(   3) =    -7.93461 eV ==== 
     psi = 0.240*[#   2]+0.240*[#  14]+0.240*[#   6]+0.240*[#  10]+
    |psi|^2 = 0.961
==== e(   4) =    -7.06434 eV ==== 
     psi = 0.243*[#   6]+0.243*[#  10]+0.243*[#   2]+0.243*[#  14]+
    |psi|^2 = 0.975
==== e(   5) =    -5.24672 eV ==== 
     psi = 0.164*[#  12]+0.164*[#   8]+0.163*[#  16]+0.162*[#   4]+0.066*[#   3]+
          +0.066*[#  15]+0.065*[#   7]+0.065*[#  11]+0.021*[#   5]+0.021*[#   9]+
          +0.020*[#   1]+0.020*[#  13]+
    |psi|^2 = 0.998
==== e(   6) =    -5.22779 eV ==== 
     psi = 0.164*[#   4]+0.164*[#  16]+0.162*[#   8]+0.162*[#  12]+0.066*[#   7]+
          +0.066*[#  11]+0.065*[#   3]+0.065*[#  15]+0.021*[#   1]+0.021*[#  13]+
          +0.020*[#   5]+0.020*[#   9]+
    |psi|^2 = 0.998
==== e(   7) =    -4.57791 eV ==== 
     psi = 0.176*[#  15]+0.176*[#  11]+0.175*[#   3]+0.175*[#   7]+0.070*[#  16]+
          +0.070*[#   4]+0.070*[#  12]+0.070*[#   8]+0.003*[#   5]+0.003*[#   9]+
          +0.003*[#   1]+0.003*[#  13]+
    |psi|^2 = 0.995
==== e(   8) =    -4.56835 eV ==== 
     psi = 0.175*[#   7]+0.175*[#   3]+0.175*[#  11]+0.175*[#  15]+0.071*[#   4]+
          +0.071*[#   8]+0.071*[#  12]+0.071*[#  16]+0.003*[#   1]+0.003*[#  13]+
          +0.003*[#   5]+0.003*[#   9]+
    |psi|^2 = 0.996
==== e(   9) =     3.57419 eV ==== 
     psi = 0.006*[#   4]+0.006*[#   8]+0.006*[#  12]+0.006*[#  16]+0.002*[#   3]+
          +0.002*[#   7]+0.002*[#  11]+0.002*[#  15]+
    |psi|^2 = 0.039
==== e(  10) =     3.96988 eV ==== 
     psi = 0.003*[#   2]+0.003*[#   6]+0.003*[#  10]+0.003*[#  14]+0.002*[#   4]+
          +0.002*[#   8]+0.002*[#  12]+0.002*[#  16]+
    |psi|^2 = 0.025
==== e(  11) =     4.69847 eV ==== 
     psi = 0.001*[#   4]+0.001*[#   8]+0.001*[#  12]+0.001*[#  16]+
    |psi|^2 = 0.007
==== e(  12) =     5.88132 eV ==== 
     psi = 0.001*[#   2]+0.001*[#   6]+0.001*[#  10]+0.001*[#  14]+
    |psi|^2 = 0.008

 k =   0.1666666667 -0.0000000000  0.0000000000
==== e(   1) =   -19.54205 eV ==== 
     psi = 0.210*[#   1]+0.210*[#   5]+0.210*[#   9]+0.210*[#  13]+0.034*[#   3]+
          +0.034*[#   7]+0.035*[#  11]+0.035*[#  15]+
    |psi|^2 = 0.978
==== e(   2) =   -19.41563 eV ==== 
     psi = 0.213*[#   1]+0.213*[#   5]+0.213*[#   9]+0.213*[#  13]+0.033*[#   3]+
          +0.033*[#   7]+0.033*[#  11]+0.033*[#  15]+
    |psi|^2 = 0.985
==== e(   3) =    -7.93430 eV ==== 
     psi = 0.240*[#   2]+0.240*[#   6]+0.240*[#  10]+0.240*[#  14]+
    |psi|^2 = 0.961
==== e(   4) =    -7.06471 eV ==== 
     psi = 0.243*[#   2]+0.243*[#   6]+0.243*[#  10]+0.243*[#  14]+
    |psi|^2 = 0.975
==== e(   5) =    -5.24870 eV ==== 
     psi = 0.211*[#  11]+0.211*[#  15]+0.211*[#   3]+0.211*[#   7]+0.021*[#   1]+
          +0.021*[#   5]+0.021*[#   9]+0.021*[#  13]+0.017*[#   4]+0.017*[#   8]+
          +0.017*[#  12]+0.017*[#  16]+
    |psi|^2 = 0.998
==== e(   6) =    -5.22327 eV ==== 
     psi = 0.212*[#   3]+0.212*[#   7]+0.211*[#  11]+0.211*[#  15]+0.020*[#   1]+
          +0.020*[#   5]+0.020*[#   9]+0.020*[#  13]+0.017*[#   4]+0.017*[#   8]+
          +0.017*[#  12]+0.017*[#  16]+
    |psi|^2 = 0.998
==== e(   7) =    -4.58175 eV ==== 
     psi = 0.227*[#  12]+0.227*[#  16]+0.227*[#   4]+0.227*[#   8]+0.019*[#   3]+
          +0.019*[#   7]+0.019*[#  11]+0.019*[#  15]+0.003*[#   1]+0.003*[#   5]+
          +0.003*[#   9]+0.003*[#  13]+
    |psi|^2 = 0.995
==== e(   8) =    -4.56716 eV ==== 
     psi = 0.227*[#   4]+0.227*[#   8]+0.227*[#  12]+0.227*[#  16]+0.019*[#   3]+
          +0.019*[#   7]+0.019*[#  11]+0.019*[#  15]+0.003*[#   1]+0.003*[#   5]+
          +0.003*[#   9]+0.003*[#  13]+
    |psi|^2 = 0.996
==== e(   9) =     3.57421 eV ==== 
     psi = 0.009*[#   3]+0.009*[#   7]+0.009*[#  11]+0.009*[#  15]+0.001*[#   2]+
          +0.001*[#   6]+0.001*[#  10]+0.001*[#  14]+
    |psi|^2 = 0.039
==== e(  10) =     3.96978 eV ==== 
     psi = 0.003*[#   2]+0.003*[#   6]+0.003*[#  10]+0.003*[#  14]+0.003*[#   3]+
          +0.003*[#   7]+0.003*[#  11]+0.003*[#  15]+
    |psi|^2 = 0.025
==== e(  11) =     4.69846 eV ==== 
     psi = 0.002*[#   3]+0.002*[#   7]+0.002*[#  11]+0.002*[#  15]+
    |psi|^2 = 0.007
==== e(  12) =     5.88120 eV ==== 
     psi = 0.001*[#   2]+0.001*[#   6]+0.001*[#  10]+0.001*[#  14]+
    |psi|^2 = 0.008

 k =  -0.0833333333  0.2405626122  0.0000000000
==== e(   1) =   -18.89101 eV ==== 
     psi = 0.183*[#   1]+0.183*[#   5]+0.183*[#   9]+0.183*[#  13]+0.055*[#   4]+
          +0.055*[#   8]+0.055*[#  12]+0.055*[#  16]+0.007*[#   3]+0.007*[#   7]+
          +0.007*[#  11]+0.007*[#  15]+
    |psi|^2 = 0.977
==== e(   2) =   -18.76957 eV ==== 
     psi = 0.186*[#   1]+0.186*[#   5]+0.186*[#   9]+0.186*[#  13]+0.053*[#   4]+
          +0.053*[#   8]+0.053*[#  12]+0.053*[#  16]+0.006*[#   3]+0.006*[#   7]+
          +0.006*[#  11]+0.006*[#  15]+
    |psi|^2 = 0.984
==== e(   3) =    -7.15914 eV ==== 
     psi = 0.243*[#   2]+0.243*[#  14]+0.243*[#   6]+0.243*[#  10]+
    |psi|^2 = 0.974
==== e(   4) =    -6.95327 eV ==== 
     psi = 0.196*[#  16]+0.196*[#   4]+0.196*[#  12]+0.196*[#   8]+0.039*[#   5]+
          +0.039*[#   9]+0.039*[#   1]+0.039*[#  13]+0.014*[#   3]+0.014*[#  15]+
          +0.014*[#   7]+0.014*[#  11]+
    |psi|^2 = 0.995
==== e(   5) =    -6.92119 eV ==== 
     psi = 0.196*[#   4]+0.196*[#   8]+0.196*[#  12]+0.196*[#  16]+0.039*[#   1]+
          +0.039*[#  13]+0.038*[#   5]+0.038*[#   9]+0.015*[#   7]+0.015*[#  11]+
          +0.014*[#   3]+0.014*[#  15]+
    |psi|^2 = 0.996
==== e(   6) =    -6.31180 eV ==== 
     psi = 0.246*[#   6]+0.246*[#  10]+0.246*[#   2]+0.246*[#  14]+
    |psi|^2 = 0.984
==== e(   7) =    -5.57251 eV ==== 
     psi = 0.226*[#  11]+0.226*[#   7]+0.225*[#  15]+0.225*[#   3]+0.017*[#   4]+
          +0.017*[#  16]+0.017*[#   8]+0.017*[#  12]+0.006*[#   5]+0.006*[#   9]+
          +0.006*[#   1]+0.006*[#  13]+
    |psi|^2 = 0.994
==== e(   8) =    -5.55828 eV ==== 
     psi = 0.227*[#   3]+0.227*[#  15]+0.226*[#   7]+0.226*[#  11]+0.017*[#   8]+
          +0.017*[#  12]+0.016*[#   4]+0.016*[#  16]+0.006*[#   1]+0.006*[#  13]+
          +0.006*[#   5]+0.006*[#   9]+
    |psi|^2 = 0.994
[...]
    |psi|^2 = 0.998
==== e(   8) =    -2.03948 eV ==== 
     psi = 0.284*[#   2]+0.284*[#  14]+0.215*[#   6]+0.215*[#  10]+
    |psi|^2 = 0.997
==== e(   9) =     0.71629 eV ==== 
     psi = 0.276*[#   6]+0.276*[#  10]+0.207*[#   2]+0.207*[#  14]+
    |psi|^2 = 0.966
==== e(  10) =     1.22027 eV ==== 
     psi = 0.267*[#   2]+0.267*[#  14]+0.218*[#   6]+0.218*[#  10]+
    |psi|^2 = 0.971
==== e(  11) =     9.29161 eV ==== 
     psi = 0.133*[#   1]+0.133*[#  13]+0.133*[#   5]+0.133*[#   9]+0.042*[#   3]+
          +0.042*[#  15]+0.042*[#   7]+0.042*[#  11]+0.027*[#   4]+0.027*[#  16]+
          +0.027*[#   8]+0.027*[#  12]+
    |psi|^2 = 0.811
==== e(  12) =     9.49847 eV ==== 
     psi = 0.138*[#   5]+0.138*[#   9]+0.135*[#   1]+0.135*[#  13]+0.045*[#   7]+
          +0.045*[#  11]+0.044*[#   3]+0.044*[#  15]+0.029*[#   4]+0.029*[#  16]+
          +0.028*[#   8]+0.028*[#  12]+
    |psi|^2 = 0.837

 k =  -0.2500000000  0.4330127019  0.0000000000
==== e(   1) =   -15.74756 eV ==== 
     psi = 0.132*[#   1]+0.132*[#  13]+0.131*[#   5]+0.132*[#   9]+0.084*[#   8]+
          +0.084*[#  12]+0.083*[#   4]+0.083*[#  16]+0.030*[#   7]+0.030*[#  11]+
          +0.030*[#   3]+0.030*[#  15]+
    |psi|^2 = 0.982
==== e(   2) =   -15.65001 eV ==== 
     psi = 0.134*[#   5]+0.134*[#   9]+0.134*[#   1]+0.134*[#  13]+0.083*[#   4]+
          +0.083*[#  16]+0.083*[#   8]+0.083*[#  12]+0.030*[#   3]+0.030*[#  15]+
          +0.030*[#   7]+0.030*[#  11]+
    |psi|^2 = 0.987
==== e(   3) =   -11.03519 eV ==== 
     psi = 0.098*[#   8]+0.098*[#  12]+0.096*[#   4]+0.096*[#  16]+0.087*[#   5]+
          +0.087*[#   9]+0.086*[#   1]+0.086*[#  13]+0.066*[#   3]+0.066*[#  15]+
          +0.063*[#   7]+0.063*[#  11]+
    |psi|^2 = 0.994
==== e(   4) =   -10.98850 eV ==== 
     psi = 0.098*[#   4]+0.098*[#  16]+0.096*[#   8]+0.096*[#  12]+0.087*[#   1]+
          +0.087*[#  13]+0.086*[#   5]+0.086*[#   9]+0.066*[#   7]+0.066*[#  11]+
          +0.063*[#   3]+0.063*[#  15]+
    |psi|^2 = 0.995
==== e(   5) =    -9.46323 eV ==== 
     psi = 0.150*[#   3]+0.150*[#  15]+0.148*[#   7]+0.148*[#  11]+0.081*[#   8]+
          +0.081*[#  12]+0.080*[#   4]+0.080*[#  16]+0.018*[#   5]+0.018*[#   9]+
          +0.016*[#   1]+0.016*[#  13]+
    |psi|^2 = 0.986
==== e(   6) =    -9.42860 eV ==== 
     psi = 0.150*[#   7]+0.150*[#  11]+0.148*[#   3]+0.148*[#  15]+0.081*[#   4]+
          +0.081*[#  16]+0.081*[#   8]+0.081*[#  12]+0.018*[#   1]+0.018*[#  13]+
          +0.016*[#   5]+0.016*[#   9]+
    |psi|^2 = 0.989
==== e(   7) =    -3.56997 eV ==== 
     psi = 0.251*[#   2]+0.251*[#  14]+0.247*[#   6]+0.247*[#  10]+
    |psi|^2 = 0.996
==== e(   8) =    -2.87511 eV ==== 
     psi = 0.252*[#   6]+0.252*[#  10]+0.246*[#   2]+0.246*[#  14]+
    |psi|^2 = 0.996
==== e(   9) =     2.11411 eV ==== 
     psi = 0.249*[#   2]+0.249*[#  14]+0.241*[#   6]+0.241*[#  10]+
    |psi|^2 = 0.981
==== e(  10) =     2.49808 eV ==== 
     psi = 0.249*[#   6]+0.249*[#  10]+0.242*[#   2]+0.242*[#  14]+
    |psi|^2 = 0.982
==== e(  11) =     8.78805 eV ==== 
     psi = 0.001*[#   1]+0.001*[#  13]+0.001*[#   4]+0.001*[#   5]+0.001*[#   8]+
          +0.001*[#   9]+0.001*[#  12]+0.001*[#  16]+
    |psi|^2 = 0.011
==== e(  12) =     9.14989 eV ==== 
     psi = 
    |psi|^2 = 0.004

 k =   0.5000000000 -0.0000000000  0.0000000000
==== e(   1) =   -15.74701 eV ==== 
     psi = 0.132*[#   1]+0.132*[#   5]+0.132*[#   9]+0.132*[#  13]+0.110*[#   3]+
          +0.110*[#   7]+0.110*[#  11]+0.110*[#  15]+0.004*[#   4]+0.004*[#   8]+
          +0.004*[#  12]+0.004*[#  16]+
    |psi|^2 = 0.982
==== e(   2) =   -15.65056 eV ==== 
     psi = 0.134*[#   1]+0.134*[#   5]+0.134*[#   9]+0.134*[#  13]+0.109*[#   3]+
          +0.109*[#   7]+0.109*[#  11]+0.109*[#  15]+0.004*[#   4]+0.004*[#   8]+
          +0.004*[#  12]+0.004*[#  16]+
    |psi|^2 = 0.987
==== e(   3) =   -11.04318 eV ==== 
     psi = 0.114*[#   3]+0.114*[#   7]+0.114*[#  11]+0.114*[#  15]+0.087*[#   1]+
          +0.087*[#   5]+0.087*[#   9]+0.087*[#  13]+0.048*[#   4]+0.048*[#   8]+
          +0.048*[#  12]+0.048*[#  16]+
    |psi|^2 = 0.994
==== e(   4) =   -10.97854 eV ==== 
     psi = 0.114*[#   3]+0.114*[#   7]+0.114*[#  11]+0.114*[#  15]+0.087*[#   1]+
          +0.087*[#   5]+0.087*[#   9]+0.087*[#  13]+0.048*[#   4]+0.048*[#   8]+
          +0.048*[#  12]+0.048*[#  16]+
    |psi|^2 = 0.995
==== e(   5) =    -9.47078 eV ==== 
     psi = 0.183*[#   4]+0.183*[#   8]+0.183*[#  12]+0.183*[#  16]+0.047*[#   3]+
          +0.047*[#   7]+0.047*[#  11]+0.047*[#  15]+0.017*[#   1]+0.017*[#   5]+
          +0.017*[#   9]+0.017*[#  13]+
    |psi|^2 = 0.987
==== e(   6) =    -9.42311 eV ==== 
     psi = 0.183*[#   4]+0.183*[#   8]+0.183*[#  12]+0.183*[#  16]+0.047*[#   3]+
          +0.047*[#   7]+0.047*[#  11]+0.047*[#  15]+0.017*[#   1]+0.017*[#   5]+
          +0.017*[#   9]+0.017*[#  13]+
    |psi|^2 = 0.988
==== e(   7) =    -3.56115 eV ==== 
     psi = 0.249*[#   2]+0.249*[#   6]+0.249*[#  10]+0.249*[#  14]+
    |psi|^2 = 0.996
==== e(   8) =    -2.88547 eV ==== 
     psi = 0.249*[#   2]+0.249*[#   6]+0.249*[#  10]+0.249*[#  14]+
    |psi|^2 = 0.996
==== e(   9) =     2.04501 eV ==== 
     psi = 0.245*[#   2]+0.245*[#   6]+0.245*[#  10]+0.245*[#  14]+
    |psi|^2 = 0.981
==== e(  10) =     2.57764 eV ==== 
     psi = 0.246*[#   2]+0.246*[#   6]+0.246*[#  10]+0.246*[#  14]+
    |psi|^2 = 0.983
==== e(  11) =     8.78886 eV ==== 
     psi = 0.001*[#   3]+0.001*[#   7]+0.001*[#  11]+0.001*[#  15]+0.001*[#   1]+
          +0.001*[#   5]+0.001*[#   9]+0.001*[#  13]+
    |psi|^2 = 0.011
==== e(  12) =     9.11958 eV ==== 
     psi = 
    |psi|^2 = 0.004

 k =  -0.2500000000  0.5292377468  0.0000000000
==== e(   1) =   -14.32526 eV ==== 
     psi = 0.126*[#   1]+0.126*[#  13]+0.126*[#   5]+0.126*[#   9]+0.090*[#   8]+
          +0.090*[#  12]+0.090*[#   4]+0.090*[#  16]+0.031*[#   7]+0.031*[#  11]+
          +0.031*[#   3]+0.031*[#  15]+
    |psi|^2 = 0.988
==== e(   2) =   -14.23729 eV ==== 
     psi = 0.128*[#   5]+0.128*[#   9]+0.127*[#   1]+0.127*[#  13]+0.090*[#   4]+
          +0.090*[#  16]+0.089*[#   8]+0.089*[#  12]+0.031*[#   3]+0.031*[#  15]+
          +0.031*[#   7]+0.031*[#  11]+
    |psi|^2 = 0.991
==== e(   3) =   -12.45885 eV ==== 
     psi = 0.141*[#   8]+0.141*[#  12]+0.139*[#   4]+0.139*[#  16]+0.092*[#   5]+
          +0.092*[#   9]+0.091*[#   1]+0.091*[#  13]+0.016*[#   3]+0.016*[#  15]+
          +0.015*[#   7]+0.015*[#  11]+
    |psi|^2 = 0.989
==== e(   4) =   -12.39598 eV ==== 
     psi = 0.140*[#   4]+0.140*[#  16]+0.139*[#   8]+0.139*[#  12]+0.092*[#   1]+
          +0.092*[#  13]+0.092*[#   5]+0.092*[#   9]+0.017*[#   7]+0.017*[#  11]+
          +0.016*[#   3]+0.016*[#  15]+
    |psi|^2 = 0.991
==== e(   5) =   -10.17280 eV ==== 
     psi = 0.195*[#   3]+0.195*[#  15]+0.195*[#   7]+0.195*[#  11]+0.032*[#   8]+
          +0.032*[#  12]+0.032*[#   4]+0.032*[#  16]+0.020*[#   5]+0.020*[#   9]+
          +0.019*[#   1]+0.019*[#  13]+
    |psi|^2 = 0.986
==== e(   6) =   -10.12774 eV ==== 
     psi = 0.196*[#   7]+0.196*[#  11]+0.196*[#   3]+0.196*[#  15]+0.031*[#   4]+
          +0.031*[#  16]+0.031*[#   8]+0.031*[#  12]+0.021*[#   1]+0.021*[#  13]+
          +0.020*[#   5]+0.020*[#   9]+
    |psi|^2 = 0.988
==== e(   7) =    -2.15921 eV ==== 
     psi = 0.253*[#   2]+0.253*[#  14]+0.245*[#   6]+0.245*[#  10]+
    |psi|^2 = 0.996
==== e(   8) =    -1.52929 eV ==== 
     psi = 0.256*[#   6]+0.256*[#  10]+0.242*[#   2]+0.242*[#  14]+
    |psi|^2 = 0.996
==== e(   9) =     0.57443 eV ==== 
     psi = 0.253*[#   2]+0.253*[#  14]+0.239*[#   6]+0.239*[#  10]+
    |psi|^2 = 0.984
==== e(  10) =     1.00989 eV ==== 
     psi = 0.251*[#   6]+0.251*[#  10]+0.242*[#   2]+0.242*[#  14]+
    |psi|^2 = 0.986
==== e(  11) =     9.87787 eV ==== 
     psi = 0.002*[#   1]+0.002*[#  13]+0.002*[#   5]+0.002*[#   9]+0.001*[#   6]+
          +0.001*[#  10]+0.001*[#   2]+0.001*[#  14]+
    |psi|^2 = 0.018
==== e(  12) =    10.70837 eV ==== 
     psi = 0.011*[#   1]+0.011*[#  13]+0.011*[#   5]+0.011*[#   9]+0.004*[#   7]+
          +0.004*[#  11]+0.003*[#   3]+0.003*[#  15]+0.002*[#   4]+0.002*[#  16]+
          +0.002*[#   8]+0.002*[#  12]+
    |psi|^2 = 0.065

 k =  -0.3333333333  0.4811252243  0.0000000000
==== e(   1) =   -14.32318 eV ==== 
     psi = 0.127*[#   1]+0.127*[#  13]+0.125*[#   5]+0.125*[#   9]+0.078*[#   8]+
          +0.078*[#  12]+0.078*[#   4]+0.078*[#  16]+0.044*[#   7]+0.044*[#  11]+
          +0.042*[#   3]+0.042*[#  15]+
    |psi|^2 = 0.988
==== e(   2) =   -14.23979 eV ==== 
     psi = 0.129*[#   5]+0.129*[#   9]+0.126*[#   1]+0.126*[#  13]+0.078*[#   4]+
          +0.078*[#  16]+0.077*[#   8]+0.077*[#  12]+0.044*[#   3]+0.044*[#  15]+
          +0.042*[#   7]+0.042*[#  11]+
    |psi|^2 = 0.991
==== e(   3) =   -12.45751 eV ==== 
     psi = 0.126*[#   7]+0.126*[#  11]+0.125*[#   3]+0.125*[#  15]+0.093*[#   1]+
          +0.093*[#  13]+0.090*[#   5]+0.090*[#   9]+0.032*[#   8]+0.032*[#  12]+
          +0.029*[#   4]+0.029*[#  16]+
    |psi|^2 = 0.989
==== e(   4) =   -12.39610 eV ==== 
     psi = 0.125*[#   3]+0.125*[#  15]+0.124*[#   7]+0.124*[#  11]+0.094*[#   5]+
          +0.094*[#   9]+0.091*[#   1]+0.091*[#  13]+0.032*[#   4]+0.032*[#  16]+
          +0.030*[#   8]+0.030*[#  12]+
    |psi|^2 = 0.991
==== e(   5) =   -10.17399 eV ==== 
     psi = 0.143*[#   8]+0.143*[#  12]+0.143*[#   4]+0.143*[#  16]+0.084*[#   3]+
          +0.084*[#  15]+0.083*[#   7]+0.083*[#  11]+0.020*[#   5]+0.020*[#   9]+
          +0.019*[#   1]+0.019*[#  13]+
    |psi|^2 = 0.986
==== e(   6) =   -10.12742 eV ==== 
     psi = 0.145*[#   4]+0.145*[#  16]+0.144*[#   8]+0.144*[#  12]+0.083*[#   7]+
          +0.083*[#  11]+0.082*[#   3]+0.082*[#  15]+0.021*[#   1]+0.021*[#  13]+
          +0.020*[#   5]+0.020*[#   9]+
    |psi|^2 = 0.988
==== e(   7) =    -2.12579 eV ==== 
     psi = 0.265*[#   2]+0.265*[#  14]+0.233*[#   6]+0.233*[#  10]+
    |psi|^2 = 0.996
==== e(   8) =    -1.57898 eV ==== 
     psi = 0.274*[#   6]+0.274*[#  10]+0.224*[#   2]+0.224*[#  14]+
    |psi|^2 = 0.996
==== e(   9) =     0.58882 eV ==== 
     psi = 0.275*[#   2]+0.275*[#  14]+0.217*[#   6]+0.217*[#  10]+
    |psi|^2 = 0.984
==== e(  10) =     1.01576 eV ==== 
     psi = 0.267*[#   6]+0.267*[#  10]+0.226*[#   2]+0.226*[#  14]+
    |psi|^2 = 0.986
==== e(  11) =     9.86649 eV ==== 
     psi = 0.002*[#   1]+0.002*[#  13]+0.001*[#   6]+0.001*[#  10]+0.001*[#   7]+
          +0.001*[#  11]+
    |psi|^2 = 0.014
==== e(  12) =    10.72923 eV ==== 
     psi = 0.006*[#   1]+0.006*[#  13]+0.003*[#   7]+0.003*[#  11]+0.001*[#   5]+
          +0.001*[#   9]+
    |psi|^2 = 0.026

 k =   0.5833333333  0.0481125224  0.0000000000
==== e(   1) =   -14.32256 eV ==== 
     psi = 0.127*[#   5]+0.127*[#   9]+0.125*[#   1]+0.125*[#  13]+0.108*[#   3]+
          +0.108*[#  15]+0.107*[#   7]+0.107*[#  11]+0.014*[#   4]+0.014*[#  16]+
          +0.013*[#   8]+0.013*[#  12]+
    |psi|^2 = 0.988
==== e(   2) =   -14.24048 eV ==== 
     psi = 0.128*[#   1]+0.128*[#  13]+0.127*[#   5]+0.127*[#   9]+0.107*[#   7]+
          +0.107*[#  11]+0.106*[#   3]+0.106*[#  15]+0.014*[#   8]+0.014*[#  12]+
          +0.014*[#   4]+0.014*[#  16]+
    |psi|^2 = 0.991
==== e(   3) =   -12.46254 eV ==== 
     psi = 0.093*[#   3]+0.094*[#  15]+0.093*[#   5]+0.093*[#   9]+0.092*[#   7]+
          +0.092*[#  11]+0.091*[#   1]+0.091*[#  13]+0.063*[#   4]+0.063*[#  16]+
          +0.063*[#   8]+0.063*[#  12]+
    |psi|^2 = 0.989
==== e(   4) =   -12.39040 eV ==== 
     psi = 0.093*[#   1]+0.093*[#  13]+0.093*[#   7]+0.093*[#  11]+0.091*[#   3]+
          +0.091*[#  15]+0.091*[#   5]+0.091*[#   9]+0.064*[#   8]+0.064*[#  12]+
          +0.063*[#   4]+0.063*[#  16]+
    |psi|^2 = 0.991
==== e(   5) =   -10.17642 eV ==== 
     psi = 0.165*[#   4]+0.165*[#  16]+0.165*[#   8]+0.165*[#  12]+0.062*[#   7]+
          +0.062*[#  11]+0.061*[#   3]+0.061*[#  15]+0.020*[#   1]+0.020*[#  13]+
          +0.020*[#   5]+0.020*[#   9]+
    |psi|^2 = 0.986
==== e(   6) =   -10.12562 eV ==== 
     psi = 0.166*[#   8]+0.166*[#  12]+0.166*[#   4]+0.166*[#  16]+0.062*[#   3]+
          +0.062*[#  15]+0.061*[#   7]+0.061*[#  11]+0.020*[#   5]+0.020*[#   9]+
          +0.020*[#   1]+0.020*[#  13]+
    |psi|^2 = 0.988
==== e(   7) =    -2.11946 eV ==== 
     psi = 0.260*[#   6]+0.260*[#  10]+0.237*[#   2]+0.237*[#  14]+
    |psi|^2 = 0.996
==== e(   8) =    -1.58165 eV ==== 
     psi = 0.267*[#   2]+0.267*[#  14]+0.231*[#   6]+0.231*[#  10]+
    |psi|^2 = 0.996
==== e(   9) =     0.52678 eV ==== 
     psi = 0.264*[#   6]+0.264*[#  10]+0.228*[#   2]+0.228*[#  14]+
    |psi|^2 = 0.985
==== e(  10) =     1.07784 eV ==== 
     psi = 0.258*[#   2]+0.258*[#  14]+0.235*[#   6]+0.235*[#  10]+
    |psi|^2 = 0.986
==== e(  11) =     9.83908 eV ==== 
     psi = 0.002*[#   5]+0.002*[#   9]+0.001*[#   1]+0.001*[#   2]+0.001*[#  13]+
          +0.001*[#  14]+
    |psi|^2 = 0.016
==== e(  12) =    10.71029 eV ==== 
     psi = 0.013*[#   5]+0.013*[#   9]+0.011*[#   1]+0.011*[#  13]+0.004*[#   4]+
          +0.004*[#  16]+0.003*[#   8]+0.003*[#  12]+0.002*[#   7]+0.002*[#  11]+
          +0.002*[#   3]+0.002*[#  15]+
    |psi|^2 = 0.071

 k =  -0.3333333333 -0.4811252243  0.0000000000
==== e(   1) =   -14.32318 eV ==== 
     psi = 0.127*[#   5]+0.127*[#   9]+0.125*[#   1]+0.125*[#  13]+0.078*[#   4]+
          +0.078*[#  16]+0.078*[#   8]+0.078*[#  12]+0.044*[#   3]+0.044*[#  15]+
          +0.042*[#   7]+0.042*[#  11]+
    |psi|^2 = 0.988
==== e(   2) =   -14.23979 eV ==== 
     psi = 0.129*[#   1]+0.129*[#  13]+0.126*[#   5]+0.126*[#   9]+0.078*[#   8]+
          +0.078*[#  12]+0.077*[#   4]+0.077*[#  16]+0.044*[#   7]+0.044*[#  11]+
          +0.042*[#   3]+0.042*[#  15]+
    |psi|^2 = 0.991
==== e(   3) =   -12.45751 eV ==== 
     psi = 0.126*[#   3]+0.126*[#  15]+0.125*[#   7]+0.125*[#  11]+0.093*[#   5]+
          +0.093*[#   9]+0.090*[#   1]+0.090*[#  13]+0.032*[#   4]+0.032*[#  16]+
          +0.029*[#   8]+0.029*[#  12]+
    |psi|^2 = 0.989
==== e(   4) =   -12.39610 eV ==== 
     psi = 0.125*[#   7]+0.125*[#  11]+0.124*[#   3]+0.124*[#  15]+0.094*[#   1]+
          +0.094*[#  13]+0.091*[#   5]+0.091*[#   9]+0.032*[#   8]+0.032*[#  12]+
          +0.030*[#   4]+0.030*[#  16]+
    |psi|^2 = 0.991
==== e(   5) =   -10.17399 eV ==== 
     psi = 0.143*[#   4]+0.143*[#  16]+0.143*[#   8]+0.143*[#  12]+0.084*[#   7]+
          +0.084*[#  11]+0.083*[#   3]+0.083*[#  15]+0.020*[#   1]+0.020*[#  13]+
          +0.019*[#   5]+0.019*[#   9]+
    |psi|^2 = 0.986
==== e(   6) =   -10.12742 eV ==== 
     psi = 0.145*[#   8]+0.145*[#  12]+0.144*[#   4]+0.144*[#  16]+0.083*[#   3]+
          +0.083*[#  15]+0.082*[#   7]+0.082*[#  11]+0.021*[#   5]+0.021*[#   9]+
          +0.020*[#   1]+0.020*[#  13]+
    |psi|^2 = 0.988
==== e(   7) =    -2.12579 eV ==== 
     psi = 0.265*[#   6]+0.265*[#  10]+0.233*[#   2]+0.233*[#  14]+
    |psi|^2 = 0.996
==== e(   8) =    -1.57898 eV ==== 
     psi = 0.274*[#   2]+0.274*[#  14]+0.224*[#   6]+0.224*[#  10]+
    |psi|^2 = 0.996
==== e(   9) =     0.58882 eV ==== 
     psi = 0.275*[#   6]+0.275*[#  10]+0.217*[#   2]+0.217*[#  14]+
    |psi|^2 = 0.984
==== e(  10) =     1.01576 eV ==== 
     psi = 0.267*[#   2]+0.267*[#  14]+0.226*[#   6]+0.226*[#  10]+
    |psi|^2 = 0.986
==== e(  11) =     9.86649 eV ==== 
     psi = 0.002*[#   5]+0.002*[#   9]+0.001*[#   2]+0.001*[#  14]+0.001*[#   3]+
          +0.001*[#  15]+
    |psi|^2 = 0.014
==== e(  12) =    10.72923 eV ==== 
     psi = 0.006*[#   5]+0.006*[#   9]+0.003*[#   3]+0.003*[#  15]+0.001*[#   1]+
          +0.001*[#  13]+
    |psi|^2 = 0.026

 k =   0.5833333333 -0.0481125224  0.0000000000
==== e(   1) =   -14.32256 eV ==== 
     psi = 0.127*[#   1]+0.127*[#  13]+0.125*[#   5]+0.125*[#   9]+0.108*[#   7]+
          +0.108*[#  11]+0.107*[#   3]+0.107*[#  15]+0.014*[#   8]+0.014*[#  12]+
          +0.013*[#   4]+0.013*[#  16]+
    |psi|^2 = 0.988
==== e(   2) =   -14.24048 eV ==== 
     psi = 0.128*[#   5]+0.128*[#   9]+0.127*[#   1]+0.127*[#  13]+0.107*[#   3]+
          +0.107*[#  15]+0.106*[#   7]+0.106*[#  11]+0.014*[#   4]+0.014*[#  16]+
          +0.014*[#   8]+0.014*[#  12]+
    |psi|^2 = 0.991
==== e(   3) =   -12.46254 eV ==== 
     psi = 0.093*[#   7]+0.094*[#  11]+0.093*[#   1]+0.093*[#  13]+0.092*[#   3]+
          +0.092*[#  15]+0.091*[#   5]+0.091*[#   9]+0.063*[#   8]+0.063*[#  12]+
          +0.063*[#   4]+0.063*[#  16]+
    |psi|^2 = 0.989
==== e(   4) =   -12.39040 eV ==== 
     psi = 0.093*[#   5]+0.093*[#   9]+0.093*[#   3]+0.093*[#  15]+0.091*[#   7]+
          +0.091*[#  11]+0.091*[#   1]+0.091*[#  13]+0.064*[#   4]+0.064*[#  16]+
          +0.063*[#   8]+0.063*[#  12]+
    |psi|^2 = 0.991
==== e(   5) =   -10.17642 eV ==== 
     psi = 0.165*[#   8]+0.165*[#  12]+0.165*[#   4]+0.165*[#  16]+0.062*[#   3]+
          +0.062*[#  15]+0.061*[#   7]+0.061*[#  11]+0.020*[#   5]+0.020*[#   9]+
          +0.020*[#   1]+0.020*[#  13]+
    |psi|^2 = 0.986
==== e(   6) =   -10.12562 eV ==== 
     psi = 0.166*[#   4]+0.166*[#  16]+0.166*[#   8]+0.166*[#  12]+0.062*[#   7]+
          +0.062*[#  11]+0.061*[#   3]+0.061*[#  15]+0.020*[#   1]+0.020*[#  13]+
          +0.020*[#   5]+0.020*[#   9]+
    |psi|^2 = 0.988
==== e(   7) =    -2.11946 eV ==== 
     psi = 0.260*[#   2]+0.260*[#  14]+0.237*[#   6]+0.237*[#  10]+
    |psi|^2 = 0.996
==== e(   8) =    -1.58165 eV ==== 
     psi = 0.267*[#   6]+0.267*[#  10]+0.231*[#   2]+0.231*[#  14]+
    |psi|^2 = 0.996
==== e(   9) =     0.52678 eV ==== 
     psi = 0.264*[#   2]+0.264*[#  14]+0.228*[#   6]+0.228*[#  10]+
    |psi|^2 = 0.985
==== e(  10) =     1.07784 eV ==== 
     psi = 0.258*[#   6]+0.258*[#  10]+0.235*[#   2]+0.235*[#  14]+
    |psi|^2 = 0.986
==== e(  11) =     9.83908 eV ==== 
     psi = 0.002*[#   1]+0.002*[#  13]+0.001*[#   5]+0.001*[#   6]+0.001*[#   9]+
          +0.001*[#  10]+
    |psi|^2 = 0.016
==== e(  12) =    10.71029 eV ==== 
     psi = 0.013*[#   1]+0.013*[#  13]+0.011*[#   5]+0.011*[#   9]+0.004*[#   8]+
          +0.004*[#  12]+0.003*[#   4]+0.003*[#  16]+0.002*[#   3]+0.002*[#  15]+
          +0.002*[#   7]+0.002*[#  11]+
    |psi|^2 = 0.071

Lowdin Charges: 

     Atom #   1: total charge =   3.9575, s =  0.9179, p =  3.0396, 
                 spin up      =   1.9787, s =  0.4590, 
                 spin up      =   1.9787, p =  1.5198, pz=  0.4946, px=  0.5126, py=  0.5126, 
                 spin down    =   1.9787, s =  0.4590, 
                 spin down    =   1.9787, p =  1.5198, pz=  0.4946, px=  0.5126, py=  0.5126, 
                 polarization =   0.0000, s =  0.0000, p =  0.0000, 
     Atom #   2: total charge =   3.9575, s =  0.9179, p =  3.0396, 
                 spin up      =   1.9787, s =  0.4590, 
                 spin up      =   1.9787, p =  1.5198, pz=  0.4946, px=  0.5126, py=  0.5126, 
                 spin down    =   1.9787, s =  0.4590, 
                 spin down    =   1.9787, p =  1.5198, pz=  0.4946, px=  0.5126, py=  0.5126, 
                 polarization =  -0.0000, s = -0.0000, p = -0.0000, 
     Atom #   3: total charge =   3.9575, s =  0.9179, p =  3.0396, 
                 spin up      =   1.9787, s =  0.4590, 
                 spin up      =   1.9787, p =  1.5198, pz=  0.4946, px=  0.5126, py=  0.5126, 
                 spin down    =   1.9787, s =  0.4590, 
                 spin down    =   1.9787, p =  1.5198, pz=  0.4946, px=  0.5126, py=  0.5126, 
                 polarization =   0.0000, s =  0.0000, p =  0.0000, 
     Atom #   4: total charge =   3.9575, s =  0.9179, p =  3.0396, 
                 spin up      =   1.9787, s =  0.4590, 
                 spin up      =   1.9787, p =  1.5198, pz=  0.4946, px=  0.5126, py=  0.5126, 
                 spin down    =   1.9787, s =  0.4590, 
                 spin down    =   1.9787, p =  1.5198, pz=  0.4946, px=  0.5126, py=  0.5126, 
                 polarization =  -0.0000, s = -0.0000, p = -0.0000, 
     Spilling Parameter:   0.0106
