
     Program PWSCF v.5.1 starts on  1May2020 at  6: 6:24 

     This program is part of the open-source Quantum ESPRESSO suite
     for quantum simulation of materials; please cite
         "P. Giannozzi et al., J. Phys.:Condens. Matter 21 395502 (2009);
          URL http://www.quantum-espresso.org", 
     in publications or presentations arising from this work. More details at
     http://www.quantum-espresso.org/quote

     Parallel version (MPI), running on     1 processors
     Waiting for input...
     Reading input from standard input

     Current dimensions of program PWSCF are:
     Max number of different atomic species (ntypx) = 10
     Max number of k-points (npk) =  40000
     Max angular momentum in pseudopotentials (lmaxx) =  3

     IMPORTANT: XC functional enforced from input :
     Exchange-correlation      = PBE ( 1  4  3  4 0)
     Any further DFT definition will be discarded
     Please, verify this is what you really want

               file C.pbe-rrkjus.UPF: wavefunction(s)  2S 2P renormalized

     Subspace diagonalization in iterative solution of the eigenvalue problem:
     a serial algorithm will be used


     G-vector sticks info
     --------------------
     sticks:   dense  smooth     PW     G-vecs:    dense   smooth      PW
     Sum         595     241     85                96043    24369    4587

     Generating pointlists ...
     new r_m :   0.2381 (alat units)  1.1104 (a.u.) for type    1

     Title: 
     graphene                                                                   


     bravais-lattice index     =           12
     lattice parameter (alat)  =       4.6627  a.u.
     unit-cell volume          =     711.6007 (a.u.)^3
     number of atoms/cell      =            4
     number of atomic types    =            1
     number of electrons       =        16.00
     number of Kohn-Sham states=           16
     kinetic-energy cutoff     =      40.0000  Ry
     charge density cutoff     =     400.0000  Ry
     convergence threshold     =      1.0E-10
     mixing beta               =       0.3000
     number of iterations used =            8  plain     mixing
     Exchange-correlation      = PBE ( 1  4  3  4 0)

     celldm(1)=   4.662710  celldm(2)=   1.000000  celldm(3)=   8.105698
     celldm(4)=  -0.500000  celldm(5)=   0.000000  celldm(6)=   0.000000

     crystal axes: (cart. coord. in units of alat)
               a(1) = (   1.000000   0.000000   0.000000 )  
               a(2) = (  -0.500000   0.866025   0.000000 )  
               a(3) = (   0.000000   0.000000   8.105698 )  

     reciprocal axes: (cart. coord. in units 2 pi/alat)
               b(1) = (  1.000000  0.577350 -0.000000 )  
               b(2) = (  0.000000  1.154701  0.000000 )  
               b(3) = (  0.000000 -0.000000  0.123370 )  


     PseudoPot. # 1 for C  read from file:
     ../pseudo/C.pbe-rrkjus.UPF
     MD5 check sum: 00fb224312de0c5b6853bd333518df6f
     Pseudo is Ultrasoft, Zval =  4.0
     Generated by new atomic code, or converted to UPF format
     Using radial grid of  627 points,  4 beta functions with: 
                l(1) =   0
                l(2) =   0
                l(3) =   1
                l(4) =   1
     Q(r) pseudized with 0 coefficients 


     atomic species   valence    mass     pseudopotential
        C              4.00    12.01100     C ( 1.00)

     Starting magnetic structure 
     atomic species   magnetization
        C           -0.500

     No symmetry found
          (note:  3 additional sym.ops. were found but ignored
           their fractional translations are incommensurate with FFT grid)

                                    s                        frac. trans.

      isym =  1     identity                                     

 cryst.   s( 1) = (     1          0          0      )
                  (     0          1          0      )
                  (     0          0          1      )

 cart.    s( 1) = (  1.0000000  0.0000000  0.0000000 )
                  (  0.0000000  1.0000000  0.0000000 )
                  (  0.0000000  0.0000000  1.0000000 )


     point group C_1 (1)    
     there are  1 classes
     the character table:

       E    
A      1.00

     the symmetry operations in each class:
     E        1

   Cartesian axes

     site n.     atom                  positions (alat units)
         1           C   tau(   1) = (   0.0000000   0.0000000   2.0264246  )
         2           C   tau(   2) = (   0.0000000   0.5773284   2.0264246  )
         3           C   tau(   3) = (   0.2431709   0.0000000   3.4124990  )
         4           C   tau(   4) = (   0.2431709   0.5773284   3.4124990  )

   Crystallographic axes

     site n.     atom                  positions (cryst. coord.)
         1           C   tau(   1) = (  0.0000000  0.0000000  0.2500000  )
         2           C   tau(   2) = (  0.3333207  0.6666414  0.2500000  )
         3           C   tau(   3) = (  0.2431709  0.0000000  0.4210000  )
         4           C   tau(   4) = (  0.5764916  0.6666414  0.4210000  )

     number of k points=   148  Marzari-Vanderbilt smearing, width (Ry)=  0.0001
                       cart. coord. in units 2pi/alat
        k(    1) = (   0.0000000   0.0000000   0.0000000), wk =   0.0069444
        k(    2) = (   0.0000000   0.0962250   0.0000000), wk =   0.0138889
        k(    3) = (   0.0000000   0.1924501   0.0000000), wk =   0.0138889
        k(    4) = (   0.0000000   0.2886751   0.0000000), wk =   0.0138889
        k(    5) = (   0.0000000   0.3849002   0.0000000), wk =   0.0138889
        k(    6) = (   0.0000000   0.4811252   0.0000000), wk =   0.0138889
        k(    7) = (   0.0000000  -0.5773503   0.0000000), wk =   0.0069444
        k(    8) = (   0.0833333   0.1443376   0.0000000), wk =   0.0138889
        k(    9) = (   0.0833333   0.2405626   0.0000000), wk =   0.0138889
        k(   10) = (   0.0833333   0.3367877   0.0000000), wk =   0.0138889
        k(   11) = (   0.0833333   0.4330127   0.0000000), wk =   0.0138889
        k(   12) = (   0.0833333   0.5292377   0.0000000), wk =   0.0138889
        k(   13) = (   0.1666667   0.2886751   0.0000000), wk =   0.0138889
        k(   14) = (   0.1666667   0.3849002   0.0000000), wk =   0.0138889
        k(   15) = (   0.1666667   0.4811252   0.0000000), wk =   0.0138889
        k(   16) = (   0.1666667   0.5773503   0.0000000), wk =   0.0138889
        k(   17) = (   0.2500000   0.4330127   0.0000000), wk =   0.0138889
        k(   18) = (   0.2500000   0.5292377   0.0000000), wk =   0.0138889
        k(   19) = (   0.3333333   0.5773503   0.0000000), wk =   0.0138889
        k(   20) = (  -0.0833333   0.0481125   0.0000000), wk =   0.0138889
        k(   21) = (   0.0833333   0.0481125   0.0000000), wk =   0.0138889
        k(   22) = (  -0.1666667   0.0962250   0.0000000), wk =   0.0138889
        k(   23) = (   0.1666667   0.0962250   0.0000000), wk =   0.0138889
        k(   24) = (  -0.2500000   0.1443376   0.0000000), wk =   0.0138889
        k(   25) = (   0.2500000   0.1443376   0.0000000), wk =   0.0138889
        k(   26) = (  -0.3333333   0.1924501   0.0000000), wk =   0.0138889
        k(   27) = (   0.3333333   0.1924501   0.0000000), wk =   0.0138889
        k(   28) = (  -0.4166667   0.2405626   0.0000000), wk =   0.0138889
        k(   29) = (   0.4166667   0.2405626   0.0000000), wk =   0.0138889
        k(   30) = (   0.5000000  -0.2886751   0.0000000), wk =   0.0069444
        k(   31) = (  -0.5000000  -0.2886751   0.0000000), wk =   0.0069444
        k(   32) = (  -0.0833333   0.1443376   0.0000000), wk =   0.0138889
        k(   33) = (   0.1666667  -0.0000000   0.0000000), wk =   0.0138889
        k(   34) = (  -0.0833333   0.2405626   0.0000000), wk =   0.0138889
        k(   35) = (  -0.1666667   0.1924501   0.0000000), wk =   0.0138889
        k(   36) = (   0.2500000   0.0481125   0.0000000), wk =   0.0138889
        k(   37) = (  -0.1666667  -0.1924501   0.0000000), wk =   0.0138889
        k(   38) = (   0.2500000  -0.0481125   0.0000000), wk =   0.0138889
        k(   39) = (  -0.0833333   0.3367877   0.0000000), wk =   0.0138889
        k(   40) = (  -0.2500000   0.2405626   0.0000000), wk =   0.0138889
        k(   41) = (   0.3333333   0.0962250   0.0000000), wk =   0.0138889
        k(   42) = (  -0.2500000  -0.2405626   0.0000000), wk =   0.0138889
        k(   43) = (   0.3333333  -0.0962250   0.0000000), wk =   0.0138889
        k(   44) = (  -0.0833333   0.4330127   0.0000000), wk =   0.0138889
        k(   45) = (  -0.3333333   0.2886751   0.0000000), wk =   0.0138889
        k(   46) = (   0.4166667   0.1443376   0.0000000), wk =   0.0138889
        k(   47) = (  -0.3333333  -0.2886751   0.0000000), wk =   0.0138889
        k(   48) = (   0.4166667  -0.1443376   0.0000000), wk =   0.0138889
        k(   49) = (  -0.0833333   0.5292377   0.0000000), wk =   0.0138889
        k(   50) = (  -0.4166667   0.3367877   0.0000000), wk =   0.0138889
        k(   51) = (   0.5000000   0.1924501   0.0000000), wk =   0.0138889
        k(   52) = (  -0.4166667  -0.3367877   0.0000000), wk =   0.0138889
        k(   53) = (   0.5000000  -0.1924501   0.0000000), wk =   0.0138889
        k(   54) = (  -0.1666667   0.2886751   0.0000000), wk =   0.0138889
        k(   55) = (   0.3333333  -0.0000000   0.0000000), wk =   0.0138889
        k(   56) = (  -0.1666667   0.3849002   0.0000000), wk =   0.0138889
        k(   57) = (  -0.2500000   0.3367877   0.0000000), wk =   0.0138889
        k(   58) = (   0.4166667   0.0481125   0.0000000), wk =   0.0138889
        k(   59) = (  -0.2500000  -0.3367877   0.0000000), wk =   0.0138889
        k(   60) = (   0.4166667  -0.0481125   0.0000000), wk =   0.0138889
        k(   61) = (  -0.1666667   0.4811252   0.0000000), wk =   0.0138889
        k(   62) = (  -0.3333333   0.3849002   0.0000000), wk =   0.0138889
        k(   63) = (   0.5000000   0.0962250   0.0000000), wk =   0.0138889
        k(   64) = (  -0.3333333  -0.3849002   0.0000000), wk =   0.0138889
        k(   65) = (   0.5000000  -0.0962250   0.0000000), wk =   0.0138889
        k(   66) = (  -0.4166667   0.4330127   0.0000000), wk =   0.0138889
        k(   67) = (   0.5833333   0.1443376   0.0000000), wk =   0.0138889
        k(   68) = (  -0.2500000   0.4330127   0.0000000), wk =   0.0138889
        k(   69) = (   0.5000000   0.0000000   0.0000000), wk =   0.0138889
        k(   70) = (  -0.2500000   0.5292377   0.0000000), wk =   0.0138889
        k(   71) = (  -0.3333333   0.4811252   0.0000000), wk =   0.0138889
        k(   72) = (   0.5833333   0.0481125   0.0000000), wk =   0.0138889
        k(   73) = (  -0.3333333  -0.4811252   0.0000000), wk =   0.0138889
        k(   74) = (   0.5833333  -0.0481125   0.0000000), wk =   0.0138889
        k(   75) = (   0.0000000   0.0000000   0.0000000), wk =   0.0069444
        k(   76) = (   0.0000000   0.0962250   0.0000000), wk =   0.0138889
        k(   77) = (   0.0000000   0.1924501   0.0000000), wk =   0.0138889
        k(   78) = (   0.0000000   0.2886751   0.0000000), wk =   0.0138889
        k(   79) = (   0.0000000   0.3849002   0.0000000), wk =   0.0138889
        k(   80) = (   0.0000000   0.4811252   0.0000000), wk =   0.0138889
        k(   81) = (   0.0000000  -0.5773503   0.0000000), wk =   0.0069444
        k(   82) = (   0.0833333   0.1443376   0.0000000), wk =   0.0138889
        k(   83) = (   0.0833333   0.2405626   0.0000000), wk =   0.0138889
        k(   84) = (   0.0833333   0.3367877   0.0000000), wk =   0.0138889
        k(   85) = (   0.0833333   0.4330127   0.0000000), wk =   0.0138889
        k(   86) = (   0.0833333   0.5292377   0.0000000), wk =   0.0138889
        k(   87) = (   0.1666667   0.2886751   0.0000000), wk =   0.0138889
        k(   88) = (   0.1666667   0.3849002   0.0000000), wk =   0.0138889
        k(   89) = (   0.1666667   0.4811252   0.0000000), wk =   0.0138889
        k(   90) = (   0.1666667   0.5773503   0.0000000), wk =   0.0138889
        k(   91) = (   0.2500000   0.4330127   0.0000000), wk =   0.0138889
        k(   92) = (   0.2500000   0.5292377   0.0000000), wk =   0.0138889
        k(   93) = (   0.3333333   0.5773503   0.0000000), wk =   0.0138889
        k(   94) = (  -0.0833333   0.0481125   0.0000000), wk =   0.0138889
        k(   95) = (   0.0833333   0.0481125   0.0000000), wk =   0.0138889
        k(   96) = (  -0.1666667   0.0962250   0.0000000), wk =   0.0138889
        k(   97) = (   0.1666667   0.0962250   0.0000000), wk =   0.0138889
        k(   98) = (  -0.2500000   0.1443376   0.0000000), wk =   0.0138889
        k(   99) = (   0.2500000   0.1443376   0.0000000), wk =   0.0138889
        k(  100) = (  -0.3333333   0.1924501   0.0000000), wk =   0.0138889
        k(  101) = (   0.3333333   0.1924501   0.0000000), wk =   0.0138889
        k(  102) = (  -0.4166667   0.2405626   0.0000000), wk =   0.0138889
        k(  103) = (   0.4166667   0.2405626   0.0000000), wk =   0.0138889
        k(  104) = (   0.5000000  -0.2886751   0.0000000), wk =   0.0069444
        k(  105) = (  -0.5000000  -0.2886751   0.0000000), wk =   0.0069444
        k(  106) = (  -0.0833333   0.1443376   0.0000000), wk =   0.0138889
        k(  107) = (   0.1666667  -0.0000000   0.0000000), wk =   0.0138889
        k(  108) = (  -0.0833333   0.2405626   0.0000000), wk =   0.0138889
        k(  109) = (  -0.1666667   0.1924501   0.0000000), wk =   0.0138889
        k(  110) = (   0.2500000   0.0481125   0.0000000), wk =   0.0138889
        k(  111) = (  -0.1666667  -0.1924501   0.0000000), wk =   0.0138889
        k(  112) = (   0.2500000  -0.0481125   0.0000000), wk =   0.0138889
        k(  113) = (  -0.0833333   0.3367877   0.0000000), wk =   0.0138889
        k(  114) = (  -0.2500000   0.2405626   0.0000000), wk =   0.0138889
        k(  115) = (   0.3333333   0.0962250   0.0000000), wk =   0.0138889
        k(  116) = (  -0.2500000  -0.2405626   0.0000000), wk =   0.0138889
        k(  117) = (   0.3333333  -0.0962250   0.0000000), wk =   0.0138889
        k(  118) = (  -0.0833333   0.4330127   0.0000000), wk =   0.0138889
        k(  119) = (  -0.3333333   0.2886751   0.0000000), wk =   0.0138889
        k(  120) = (   0.4166667   0.1443376   0.0000000), wk =   0.0138889
        k(  121) = (  -0.3333333  -0.2886751   0.0000000), wk =   0.0138889
        k(  122) = (   0.4166667  -0.1443376   0.0000000), wk =   0.0138889
        k(  123) = (  -0.0833333   0.5292377   0.0000000), wk =   0.0138889
        k(  124) = (  -0.4166667   0.3367877   0.0000000), wk =   0.0138889
        k(  125) = (   0.5000000   0.1924501   0.0000000), wk =   0.0138889
        k(  126) = (  -0.4166667  -0.3367877   0.0000000), wk =   0.0138889
        k(  127) = (   0.5000000  -0.1924501   0.0000000), wk =   0.0138889
        k(  128) = (  -0.1666667   0.2886751   0.0000000), wk =   0.0138889
        k(  129) = (   0.3333333  -0.0000000   0.0000000), wk =   0.0138889
        k(  130) = (  -0.1666667   0.3849002   0.0000000), wk =   0.0138889
        k(  131) = (  -0.2500000   0.3367877   0.0000000), wk =   0.0138889
        k(  132) = (   0.4166667   0.0481125   0.0000000), wk =   0.0138889
        k(  133) = (  -0.2500000  -0.3367877   0.0000000), wk =   0.0138889
        k(  134) = (   0.4166667  -0.0481125   0.0000000), wk =   0.0138889
        k(  135) = (  -0.1666667   0.4811252   0.0000000), wk =   0.0138889
        k(  136) = (  -0.3333333   0.3849002   0.0000000), wk =   0.0138889
        k(  137) = (   0.5000000   0.0962250   0.0000000), wk =   0.0138889
        k(  138) = (  -0.3333333  -0.3849002   0.0000000), wk =   0.0138889
        k(  139) = (   0.5000000  -0.0962250   0.0000000), wk =   0.0138889
        k(  140) = (  -0.4166667   0.4330127   0.0000000), wk =   0.0138889
        k(  141) = (   0.5833333   0.1443376   0.0000000), wk =   0.0138889
        k(  142) = (  -0.2500000   0.4330127   0.0000000), wk =   0.0138889
        k(  143) = (   0.5000000   0.0000000   0.0000000), wk =   0.0138889
        k(  144) = (  -0.2500000   0.5292377   0.0000000), wk =   0.0138889
        k(  145) = (  -0.3333333   0.4811252   0.0000000), wk =   0.0138889
        k(  146) = (   0.5833333   0.0481125   0.0000000), wk =   0.0138889
        k(  147) = (  -0.3333333  -0.4811252   0.0000000), wk =   0.0138889
        k(  148) = (   0.5833333  -0.0481125   0.0000000), wk =   0.0138889

                       cryst. coord.
        k(    1) = (   0.0000000   0.0000000   0.0000000), wk =   0.0069444
        k(    2) = (   0.0000000   0.0833333   0.0000000), wk =   0.0138889
        k(    3) = (   0.0000000   0.1666667   0.0000000), wk =   0.0138889
        k(    4) = (   0.0000000   0.2500000   0.0000000), wk =   0.0138889
        k(    5) = (   0.0000000   0.3333333   0.0000000), wk =   0.0138889
        k(    6) = (   0.0000000   0.4166667   0.0000000), wk =   0.0138889
        k(    7) = (   0.0000000  -0.5000000   0.0000000), wk =   0.0069444
        k(    8) = (   0.0833333   0.0833333   0.0000000), wk =   0.0138889
        k(    9) = (   0.0833333   0.1666667   0.0000000), wk =   0.0138889
        k(   10) = (   0.0833333   0.2500000   0.0000000), wk =   0.0138889
        k(   11) = (   0.0833333   0.3333333   0.0000000), wk =   0.0138889
        k(   12) = (   0.0833333   0.4166667   0.0000000), wk =   0.0138889
        k(   13) = (   0.1666667   0.1666667   0.0000000), wk =   0.0138889
        k(   14) = (   0.1666667   0.2500000   0.0000000), wk =   0.0138889
        k(   15) = (   0.1666667   0.3333333   0.0000000), wk =   0.0138889
        k(   16) = (   0.1666667   0.4166667   0.0000000), wk =   0.0138889
        k(   17) = (   0.2500000   0.2500000   0.0000000), wk =   0.0138889
        k(   18) = (   0.2500000   0.3333333   0.0000000), wk =   0.0138889
        k(   19) = (   0.3333333   0.3333333   0.0000000), wk =   0.0138889
        k(   20) = (  -0.0833333   0.0833333   0.0000000), wk =   0.0138889
        k(   21) = (   0.0833333   0.0000000   0.0000000), wk =   0.0138889
        k(   22) = (  -0.1666667   0.1666667   0.0000000), wk =   0.0138889
        k(   23) = (   0.1666667   0.0000000   0.0000000), wk =   0.0138889
        k(   24) = (  -0.2500000   0.2500000   0.0000000), wk =   0.0138889
        k(   25) = (   0.2500000   0.0000000   0.0000000), wk =   0.0138889
        k(   26) = (  -0.3333333   0.3333333   0.0000000), wk =   0.0138889
        k(   27) = (   0.3333333   0.0000000   0.0000000), wk =   0.0138889
        k(   28) = (  -0.4166667   0.4166667   0.0000000), wk =   0.0138889
        k(   29) = (   0.4166667   0.0000000   0.0000000), wk =   0.0138889
        k(   30) = (   0.5000000  -0.5000000   0.0000000), wk =   0.0069444
        k(   31) = (  -0.5000000   0.0000000   0.0000000), wk =   0.0069444
        k(   32) = (  -0.0833333   0.1666667   0.0000000), wk =   0.0138889
        k(   33) = (   0.1666667  -0.0833333   0.0000000), wk =   0.0138889
        k(   34) = (  -0.0833333   0.2500000   0.0000000), wk =   0.0138889
        k(   35) = (  -0.1666667   0.2500000   0.0000000), wk =   0.0138889
        k(   36) = (   0.2500000  -0.0833333   0.0000000), wk =   0.0138889
        k(   37) = (  -0.1666667  -0.0833333   0.0000000), wk =   0.0138889
        k(   38) = (   0.2500000  -0.1666667   0.0000000), wk =   0.0138889
        k(   39) = (  -0.0833333   0.3333333   0.0000000), wk =   0.0138889
        k(   40) = (  -0.2500000   0.3333333   0.0000000), wk =   0.0138889
        k(   41) = (   0.3333333  -0.0833333   0.0000000), wk =   0.0138889
        k(   42) = (  -0.2500000  -0.0833333   0.0000000), wk =   0.0138889
        k(   43) = (   0.3333333  -0.2500000   0.0000000), wk =   0.0138889
        k(   44) = (  -0.0833333   0.4166667   0.0000000), wk =   0.0138889
        k(   45) = (  -0.3333333   0.4166667   0.0000000), wk =   0.0138889
        k(   46) = (   0.4166667  -0.0833333   0.0000000), wk =   0.0138889
        k(   47) = (  -0.3333333  -0.0833333   0.0000000), wk =   0.0138889
        k(   48) = (   0.4166667  -0.3333333   0.0000000), wk =   0.0138889
        k(   49) = (  -0.0833333   0.5000000   0.0000000), wk =   0.0138889
        k(   50) = (  -0.4166667   0.5000000   0.0000000), wk =   0.0138889
        k(   51) = (   0.5000000  -0.0833333   0.0000000), wk =   0.0138889
        k(   52) = (  -0.4166667  -0.0833333   0.0000000), wk =   0.0138889
        k(   53) = (   0.5000000  -0.4166667   0.0000000), wk =   0.0138889
        k(   54) = (  -0.1666667   0.3333333   0.0000000), wk =   0.0138889
        k(   55) = (   0.3333333  -0.1666667   0.0000000), wk =   0.0138889
        k(   56) = (  -0.1666667   0.4166667   0.0000000), wk =   0.0138889
        k(   57) = (  -0.2500000   0.4166667   0.0000000), wk =   0.0138889
        k(   58) = (   0.4166667  -0.1666667   0.0000000), wk =   0.0138889
        k(   59) = (  -0.2500000  -0.1666667   0.0000000), wk =   0.0138889
        k(   60) = (   0.4166667  -0.2500000   0.0000000), wk =   0.0138889
        k(   61) = (  -0.1666667   0.5000000   0.0000000), wk =   0.0138889
        k(   62) = (  -0.3333333   0.5000000   0.0000000), wk =   0.0138889
        k(   63) = (   0.5000000  -0.1666667   0.0000000), wk =   0.0138889
        k(   64) = (  -0.3333333  -0.1666667   0.0000000), wk =   0.0138889
        k(   65) = (   0.5000000  -0.3333333   0.0000000), wk =   0.0138889
        k(   66) = (  -0.4166667   0.5833333   0.0000000), wk =   0.0138889
        k(   67) = (   0.5833333  -0.1666667   0.0000000), wk =   0.0138889
        k(   68) = (  -0.2500000   0.5000000   0.0000000), wk =   0.0138889
        k(   69) = (   0.5000000  -0.2500000   0.0000000), wk =   0.0138889
        k(   70) = (  -0.2500000   0.5833333   0.0000000), wk =   0.0138889
        k(   71) = (  -0.3333333   0.5833333   0.0000000), wk =   0.0138889
        k(   72) = (   0.5833333  -0.2500000   0.0000000), wk =   0.0138889
        k(   73) = (  -0.3333333  -0.2500000   0.0000000), wk =   0.0138889
        k(   74) = (   0.5833333  -0.3333333   0.0000000), wk =   0.0138889
        k(   75) = (   0.0000000   0.0000000   0.0000000), wk =   0.0069444
        k(   76) = (   0.0000000   0.0833333   0.0000000), wk =   0.0138889
        k(   77) = (   0.0000000   0.1666667   0.0000000), wk =   0.0138889
        k(   78) = (   0.0000000   0.2500000   0.0000000), wk =   0.0138889
        k(   79) = (   0.0000000   0.3333333   0.0000000), wk =   0.0138889
        k(   80) = (   0.0000000   0.4166667   0.0000000), wk =   0.0138889
        k(   81) = (   0.0000000  -0.5000000   0.0000000), wk =   0.0069444
        k(   82) = (   0.0833333   0.0833333   0.0000000), wk =   0.0138889
        k(   83) = (   0.0833333   0.1666667   0.0000000), wk =   0.0138889
        k(   84) = (   0.0833333   0.2500000   0.0000000), wk =   0.0138889
        k(   85) = (   0.0833333   0.3333333   0.0000000), wk =   0.0138889
        k(   86) = (   0.0833333   0.4166667   0.0000000), wk =   0.0138889
        k(   87) = (   0.1666667   0.1666667   0.0000000), wk =   0.0138889
        k(   88) = (   0.1666667   0.2500000   0.0000000), wk =   0.0138889
        k(   89) = (   0.1666667   0.3333333   0.0000000), wk =   0.0138889
        k(   90) = (   0.1666667   0.4166667   0.0000000), wk =   0.0138889
        k(   91) = (   0.2500000   0.2500000   0.0000000), wk =   0.0138889
        k(   92) = (   0.2500000   0.3333333   0.0000000), wk =   0.0138889
        k(   93) = (   0.3333333   0.3333333   0.0000000), wk =   0.0138889
        k(   94) = (  -0.0833333   0.0833333   0.0000000), wk =   0.0138889
        k(   95) = (   0.0833333   0.0000000   0.0000000), wk =   0.0138889
        k(   96) = (  -0.1666667   0.1666667   0.0000000), wk =   0.0138889
        k(   97) = (   0.1666667   0.0000000   0.0000000), wk =   0.0138889
        k(   98) = (  -0.2500000   0.2500000   0.0000000), wk =   0.0138889
        k(   99) = (   0.2500000   0.0000000   0.0000000), wk =   0.0138889
        k(  100) = (  -0.3333333   0.3333333   0.0000000), wk =   0.0138889
        k(  101) = (   0.3333333   0.0000000   0.0000000), wk =   0.0138889
        k(  102) = (  -0.4166667   0.4166667   0.0000000), wk =   0.0138889
        k(  103) = (   0.4166667   0.0000000   0.0000000), wk =   0.0138889
        k(  104) = (   0.5000000  -0.5000000   0.0000000), wk =   0.0069444
        k(  105) = (  -0.5000000   0.0000000   0.0000000), wk =   0.0069444
        k(  106) = (  -0.0833333   0.1666667   0.0000000), wk =   0.0138889
        k(  107) = (   0.1666667  -0.0833333   0.0000000), wk =   0.0138889
        k(  108) = (  -0.0833333   0.2500000   0.0000000), wk =   0.0138889
        k(  109) = (  -0.1666667   0.2500000   0.0000000), wk =   0.0138889
        k(  110) = (   0.2500000  -0.0833333   0.0000000), wk =   0.0138889
        k(  111) = (  -0.1666667  -0.0833333   0.0000000), wk =   0.0138889
        k(  112) = (   0.2500000  -0.1666667   0.0000000), wk =   0.0138889
        k(  113) = (  -0.0833333   0.3333333   0.0000000), wk =   0.0138889
        k(  114) = (  -0.2500000   0.3333333   0.0000000), wk =   0.0138889
        k(  115) = (   0.3333333  -0.0833333   0.0000000), wk =   0.0138889
        k(  116) = (  -0.2500000  -0.0833333   0.0000000), wk =   0.0138889
        k(  117) = (   0.3333333  -0.2500000   0.0000000), wk =   0.0138889
        k(  118) = (  -0.0833333   0.4166667   0.0000000), wk =   0.0138889
        k(  119) = (  -0.3333333   0.4166667   0.0000000), wk =   0.0138889
        k(  120) = (   0.4166667  -0.0833333   0.0000000), wk =   0.0138889
        k(  121) = (  -0.3333333  -0.0833333   0.0000000), wk =   0.0138889
        k(  122) = (   0.4166667  -0.3333333   0.0000000), wk =   0.0138889
        k(  123) = (  -0.0833333   0.5000000   0.0000000), wk =   0.0138889
        k(  124) = (  -0.4166667   0.5000000   0.0000000), wk =   0.0138889
        k(  125) = (   0.5000000  -0.0833333   0.0000000), wk =   0.0138889
        k(  126) = (  -0.4166667  -0.0833333   0.0000000), wk =   0.0138889
        k(  127) = (   0.5000000  -0.4166667   0.0000000), wk =   0.0138889
        k(  128) = (  -0.1666667   0.3333333   0.0000000), wk =   0.0138889
        k(  129) = (   0.3333333  -0.1666667   0.0000000), wk =   0.0138889
        k(  130) = (  -0.1666667   0.4166667   0.0000000), wk =   0.0138889
        k(  131) = (  -0.2500000   0.4166667   0.0000000), wk =   0.0138889
        k(  132) = (   0.4166667  -0.1666667   0.0000000), wk =   0.0138889
        k(  133) = (  -0.2500000  -0.1666667   0.0000000), wk =   0.0138889
        k(  134) = (   0.4166667  -0.2500000   0.0000000), wk =   0.0138889
        k(  135) = (  -0.1666667   0.5000000   0.0000000), wk =   0.0138889
        k(  136) = (  -0.3333333   0.5000000   0.0000000), wk =   0.0138889
        k(  137) = (   0.5000000  -0.1666667   0.0000000), wk =   0.0138889
        k(  138) = (  -0.3333333  -0.1666667   0.0000000), wk =   0.0138889
        k(  139) = (   0.5000000  -0.3333333   0.0000000), wk =   0.0138889
        k(  140) = (  -0.4166667   0.5833333   0.0000000), wk =   0.0138889
        k(  141) = (   0.5833333  -0.1666667   0.0000000), wk =   0.0138889
        k(  142) = (  -0.2500000   0.5000000   0.0000000), wk =   0.0138889
        k(  143) = (   0.5000000  -0.2500000   0.0000000), wk =   0.0138889
        k(  144) = (  -0.2500000   0.5833333   0.0000000), wk =   0.0138889
        k(  145) = (  -0.3333333   0.5833333   0.0000000), wk =   0.0138889
        k(  146) = (   0.5833333  -0.2500000   0.0000000), wk =   0.0138889
        k(  147) = (  -0.3333333  -0.2500000   0.0000000), wk =   0.0138889
        k(  148) = (   0.5833333  -0.3333333   0.0000000), wk =   0.0138889

     Dense  grid:    96043 G-vectors     FFT dimensions: (  30,  30, 243)

     Smooth grid:    24369 G-vectors     FFT dimensions: (  20,  20, 160)

     Largest allocated arrays     est. size (Mb)     dimensions
        Kohn-Sham Wavefunctions         0.75 Mb     (    3054,   16)
        NL pseudopotentials             1.49 Mb     (    3054,   32)
        Each V/rho on FFT grid          6.67 Mb     (  218700,   2)
        Each G-vector array             0.73 Mb     (   96043)
        G-vector shells                 0.04 Mb     (    4763)
     Largest temporary arrays     est. size (Mb)     dimensions
        Auxiliary wavefunctions         2.98 Mb     (    3054,   64)
        Each subspace H/S matrix        0.06 Mb     (      64,   64)
        Each <psi_i|beta_j> matrix      0.01 Mb     (      32,   16)
        Arrays for rho mixing          26.70 Mb     (  218700,    8)

     Initial potential from superposition of free atoms

     starting charge   15.99979, renormalised to   16.00000

     negative rho (up, down):  2.619E-06 7.857E-06
     Starting wfc are   16 randomized atomic wfcs

     total cpu time spent up to now is        9.3 secs

     per-process dynamical memory:   163.4 Mb

     Self-consistent Calculation

     iteration #  1     ecut=    40.00 Ry     beta=0.30
     Davidson diagonalization with overlap
     ethr =  1.00E-02,  avg # of iterations =  6.1

     negative rho (up, down):  1.451E-06 4.784E-06

     Magnetic moment per site:
     atom:    1    charge:    1.6477    magn:   -0.5743    constr:    0.0000
     atom:    2    charge:    1.6477    magn:   -0.5743    constr:    0.0000
     atom:    3    charge:    1.6466    magn:   -0.5739    constr:    0.0000
     atom:    4    charge:    1.6466    magn:   -0.5739    constr:    0.0000

     total cpu time spent up to now is       46.8 secs

 ------ SPIN UP ------------


          k = 0.0000 0.0000 0.0000     band energies (ev):

   -21.7485 -21.6438  -9.4293  -8.6532  -5.8636  -5.8582  -5.8575  -5.8554
     3.2770   3.8271   4.6747   5.8226   5.8635   5.8724   5.8733   5.8864

     occupation numbers 
     1.0000   1.0000   1.0000   1.0000   1.0000   1.0000   1.0000   1.0000
     0.0000   0.0000   0.0000   0.0000   0.0000   0.0000   0.0000   0.0000

          k = 0.0000 0.0962 0.0000     band energies (ev):

   -21.5882 -21.4846  -9.2347  -8.4641  -6.4701  -6.4581  -6.1750  -6.1744
     3.4922   4.0486   4.9554   5.9440   5.9637   6.1104   6.5366   6.5378

     occupation numbers 
     1.0000   1.0000   1.0000   1.0000   1.0000   1.0000   1.0000   1.0000
     0.0000   0.0000   0.0000   0.0000   0.0000   0.0000   0.0000   0.0000

          k = 0.0000 0.1925 0.0000     band energies (ev):

   -21.1092 -21.0088  -8.6578  -8.0136  -7.9921  -7.9030  -6.9250  -6.9245
     4.1421   4.7128   5.9048   6.0045   6.1780   6.7773   7.2573   7.4299

     occupation numbers 
     1.0000   1.0000   1.0000   1.0000   1.0000   1.0000   1.0000   1.0000
     0.0000   0.0000   0.0000   0.0000   0.0000   0.0000   0.0000   0.0000

          k = 0.0000 0.2887 0.0000     band energies (ev):

   -20.3176 -20.2224 -10.0143  -9.9810  -7.7673  -7.7667  -7.7166  -6.9917
     5.1872   5.2231   5.4768   5.7408   5.8549   5.9381   6.8104   7.8370

     occupation numbers 
     1.0000   1.0000   1.0000   1.0000   1.0000   1.0000   1.0000   1.0000
     0.0000   0.0000   0.0000   0.0000   0.0000   0.0000   0.0000   0.0000

          k = 0.0000 0.3849 0.0000     band energies (ev):

   -19.2261 -19.1378 -12.1323 -12.0874  -8.4745  -8.4737  -6.4640  -5.7841
     2.9660   3.3859   5.5284   5.5561   6.7591   7.3690   8.3947   9.3752

     occupation numbers 
     1.0000   1.0000   1.0000   1.0000   1.0000   1.0000   1.0000   1.0000
     0.0000   0.0000   0.0000   0.0000   0.0000   0.0000   0.0000   0.0000

          k = 0.0000 0.4811 0.0000     band energies (ev):

   -17.8673 -17.7870 -14.1608 -14.1051  -8.9328  -8.9316  -5.0619  -4.4507
     0.8705   1.4220   5.3543   5.3601   8.6233   9.3156  10.3316  11.2362

     occupation numbers 
     1.0000   1.0000   1.0000   1.0000   1.0000   1.0000   1.0000   1.0000
     0.0000   0.0000   0.0000   0.0000   0.0000   0.0000   0.0000   0.0000

          k = 0.0000-0.5774 0.0000     band energies (ev):

   -16.6500 -16.5738 -15.6093 -15.5479  -9.0898  -9.0890  -4.2337  -3.6839
    -0.2031   0.4313   5.2866   5.2932  10.7330  10.8601  11.6088  11.7873

     occupation numbers 
     1.0000   1.0000   1.0000   1.0000   1.0000   1.0000   1.0000   1.0000
     0.0000   0.0000   0.0000   0.0000   0.0000   0.0000   0.0000   0.0000

          k = 0.0833 0.1443 0.0000     band energies (ev):

   -21.2685 -21.1671  -8.8486  -8.0891  -7.4447  -7.4302  -6.8110  -6.8037
     3.9300   4.4936   5.7465   6.2765   6.3096   6.5401   7.4201   7.4268

     occupation numbers 
     1.0000   1.0000   1.0000   1.0000   1.0000   1.0000   1.0000   1.0000
     0.0000   0.0000   0.0000   0.0000   0.0000   0.0000   0.0000   0.0000

          k = 0.0833 0.2406 0.0000     band energies (ev):

   -20.6333 -20.5360  -9.0710  -9.0460  -8.0888  -7.7564  -7.7458  -7.3517
     4.7875   5.3682   6.0455   6.2565   6.4700   6.5160   6.8938   7.4199

     occupation numbers 
     1.0000   1.0000   1.0000   1.0000   1.0000   1.0000   1.0000   1.0000
     0.0000   0.0000   0.0000   0.0000   0.0000   0.0000   0.0000   0.0000

          k = 0.0833 0.3368 0.0000     band energies (ev):

   -19.6916 -19.6005 -11.0551 -11.0175  -8.6090  -8.5951  -6.9853  -6.2852
     3.9641   4.2842   5.9943   6.3260   6.4371   6.7256   7.7572   8.7736

     occupation numbers 
     1.0000   1.0000   1.0000   1.0000   1.0000   1.0000   1.0000   1.0000
     0.0000   0.0000   0.0000   0.0000   0.0000   0.0000   0.0000   0.0000

          k = 0.0833 0.4330 0.0000     band energies (ev):

   -18.4632 -18.3797 -13.0997 -13.0501  -9.2239  -9.2083  -5.6237  -4.9795
     1.8006   2.2519   6.0949   6.1330   7.7979   8.4660   9.3469  10.0795

     occupation numbers 
     1.0000   1.0000   1.0000   1.0000   1.0000   1.0000   1.0000   1.0000
     0.0000   0.0000   0.0000   0.0000   0.0000   0.0000   0.0000   0.0000

          k = 0.0833 0.5292 0.0000     band energies (ev):

   -17.0275 -16.9514 -14.9741 -14.9148  -9.5428  -9.5266  -4.3366  -3.7685
     0.0680   0.6378   5.9618   6.0004   9.8104  10.5417  11.2392  11.9574

     occupation numbers 
     1.0000   1.0000   1.0000   1.0000   1.0000   1.0000   1.0000   1.0000
     0.0000   0.0000   0.0000   0.0000   0.0000   0.0000   0.0000   0.0000

          k = 0.1667 0.2887 0.0000     band energies (ev):

   -19.8478 -19.7557 -10.3521 -10.3264  -9.0372  -9.0200  -7.1607  -6.4558
     4.3983   4.6440   5.8651   6.4908   7.6008   7.7098   7.9535   9.1374

     occupation numbers 
     1.0000   1.0000   1.0000   1.0000   1.0000   1.0000   1.0000   1.0000
     0.0000   0.0000   0.0000   0.0000   0.0000   0.0000   0.0000   0.0000

          k = 0.1667 0.3849 0.0000     band energies (ev):

   -18.7676 -18.6825 -12.0116 -11.9734 -10.0514 -10.0273  -5.9228  -5.2642
     2.5044   2.8176   7.3342   7.8644   8.0184   8.0905  10.4148  10.6289

     occupation numbers 
     1.0000   1.0000   1.0000   1.0000   1.0000   1.0000   1.0000   1.0000
     0.0000   0.0000   0.0000   0.0000   0.0000   0.0000   0.0000   0.0000

          k = 0.1667 0.4811 0.0000     band energies (ev):

   -17.4297 -17.3525 -13.8506 -13.7990 -10.6130 -10.5844  -4.5170  -3.9229
     0.6306   1.0463   7.7331   7.8363   9.2410   9.8262  11.8670  12.5273

     occupation numbers 
     1.0000   1.0000   1.0000   1.0000   1.0000   1.0000   1.0000   1.0000
     0.0000   0.0000   0.0000   0.0000   0.0000   0.0000   0.0000   0.0000

          k = 0.1667 0.5774 0.0000     band energies (ev):

   -16.2417 -16.1689 -15.2272 -15.1695 -10.7936 -10.7638  -3.6432  -3.1030
    -0.4162   0.0740   7.6607   7.7704  10.3789  11.0327  11.2637  11.5123

     occupation numbers 
     1.0000   1.0000   1.0000   1.0000   1.0000   1.0000   1.0000   0.0000
     0.0000   0.0000   0.0000   0.0000   0.0000   0.0000   0.0000   0.0000

          k = 0.2500 0.4330 0.0000     band energies (ev):

   -17.5727 -17.4954 -13.0176 -12.9811 -11.4545 -11.4278  -4.5935  -3.9990
     0.9281   1.2504   8.9487   9.5151   9.9401  10.0818  10.2781  10.4570

     occupation numbers 
     1.0000   1.0000   1.0000   1.0000   1.0000   1.0000   1.0000   1.0000
     0.0000   0.0000   0.0000   0.0000   0.0000   0.0000   0.0000   0.0000

          k = 0.2500 0.5292 0.0000     band energies (ev):

   -16.1956 -16.1262 -14.3847 -14.3356 -12.1408 -12.1060  -3.2327  -2.6966
    -0.5604  -0.1942   9.4402   9.8193  10.1471  10.7600  10.7911  11.7112

     occupation numbers 
     1.0000   1.0000   1.0000   1.0000   1.0000   1.0000   0.0000   0.0000
     0.0000   0.0000   0.0000   0.0000   0.0000   0.0000   0.0000   0.0000

          k = 0.3333 0.5774 0.0000     band energies (ev):

   -15.0230 -15.0159 -14.9677 -14.9593 -12.9793 -12.9454  -1.9026  -1.8453
    -1.4607  -1.3942   9.0759  10.4577  11.0423  11.2737  11.7721  11.8623

     occupation numbers 
     1.0000   1.0000   1.0000   1.0000   1.0000   1.0000   0.0000   0.0000
     0.0000   0.0000   0.0000   0.0000   0.0000   0.0000   0.0000   0.0000

          k =-0.0833 0.0481 0.0000     band energies (ev):

   -21.5882 -21.4846  -9.2346  -8.4642  -6.4685  -6.4574  -6.1796  -6.1721
     3.4926   4.0486   5.0482   5.9459   5.9688   6.1256   6.5297   6.5472

     occupation numbers 
     1.0000   1.0000   1.0000   1.0000   1.0000   1.0000   1.0000   1.0000
     0.0000   0.0000   0.0000   0.0000   0.0000   0.0000   0.0000   0.0000

          k = 0.0833 0.0481 0.0000     band energies (ev):

   -21.5882 -21.4846  -9.2347  -8.4643  -6.4685  -6.4574  -6.1796  -6.1721
     3.4924   4.0505   4.9511   5.9280   5.9729   6.0970   6.5298   6.5475

     occupation numbers 
     1.0000   1.0000   1.0000   1.0000   1.0000   1.0000   1.0000   1.0000
     0.0000   0.0000   0.0000   0.0000   0.0000   0.0000   0.0000   0.0000

          k =-0.1667 0.0962 0.0000     band energies (ev):

   -21.1092 -21.0088  -8.6572  -8.0131  -7.9908  -7.9038  -6.9305  -6.9209
     4.1369   4.7112   5.8046   6.0069   6.0609   6.7380   7.2282   7.3975

     occupation numbers 
     1.0000   1.0000   1.0000   1.0000   1.0000   1.0000   1.0000   1.0000
     0.0000   0.0000   0.0000   0.0000   0.0000   0.0000   0.0000   0.0000

          k = 0.1667 0.0962 0.0000     band energies (ev):

   -21.1092 -21.0089  -8.6571  -8.0131  -7.9908  -7.9038  -6.9305  -6.9209
     4.1424   4.7102   5.8526   6.0085   6.1195   6.7481   7.2340   7.4419

     occupation numbers 
     1.0000   1.0000   1.0000   1.0000   1.0000   1.0000   1.0000   1.0000
     0.0000   0.0000   0.0000   0.0000   0.0000   0.0000   0.0000   0.0000

          k =-0.2500 0.1443 0.0000     band energies (ev):

   -20.3175 -20.2225 -10.0141  -9.9800  -7.7734  -7.7621  -7.7152  -6.9936
     5.1757   5.2087   5.4906   5.7634   5.8435   5.9371   6.7923   7.8292

     occupation numbers 
     1.0000   1.0000   1.0000   1.0000   1.0000   1.0000   1.0000   1.0000
     0.0000   0.0000   0.0000   0.0000   0.0000   0.0000   0.0000   0.0000

          k = 0.2500 0.1443 0.0000     band energies (ev):

   -20.3175 -20.2225 -10.0141  -9.9800  -7.7734  -7.7621  -7.7151  -6.9937
     5.1753   5.2092   5.4920   5.7704   5.8447   5.9522   6.7184   7.7263

     occupation numbers 
     1.0000   1.0000   1.0000   1.0000   1.0000   1.0000   1.0000   1.0000
     0.0000   0.0000   0.0000   0.0000   0.0000   0.0000   0.0000   0.0000

          k =-0.3333 0.1925 0.0000     band energies (ev):

   -19.2259 -19.1380 -12.1322 -12.0866  -8.4810  -8.4687  -6.4583  -5.7911
     2.9715   3.3842   5.4922   5.5937   6.7578   7.4030   8.2568   9.1467

     occupation numbers 
     1.0000   1.0000   1.0000   1.0000   1.0000   1.0000   1.0000   1.0000
     0.0000   0.0000   0.0000   0.0000   0.0000   0.0000   0.0000   0.0000

          k = 0.3333 0.1925 0.0000     band energies (ev):

   -19.2259 -19.1381 -12.1322 -12.0866  -8.4810  -8.4687  -6.4583  -5.7911
     2.9712   3.3841   5.4922   5.5938   6.7577   7.3706   8.2790   9.2104

     occupation numbers 
     1.0000   1.0000   1.0000   1.0000   1.0000   1.0000   1.0000   1.0000
     0.0000   0.0000   0.0000   0.0000   0.0000   0.0000   0.0000   0.0000

          k =-0.4167 0.2406 0.0000     band energies (ev):

   -17.8664 -17.7878 -14.1606 -14.1045  -8.9393  -8.9264  -5.0393  -4.4797
     0.9054   1.3957   5.3061   5.4090   8.6232   9.3077  10.3322  11.3556

     occupation numbers 
     1.0000   1.0000   1.0000   1.0000   1.0000   1.0000   1.0000   1.0000
     0.0000   0.0000   0.0000   0.0000   0.0000   0.0000   0.0000   0.0000

          k = 0.4167 0.2406 0.0000     band energies (ev):

   -17.8664 -17.7878 -14.1606 -14.1045  -8.9391  -8.9263  -5.0393  -4.4797
     0.9055   1.3956   5.3061   5.4088   8.6261   9.3122  10.2797  10.9693

     occupation numbers 
     1.0000   1.0000   1.0000   1.0000   1.0000   1.0000   1.0000   1.0000
     0.0000   0.0000   0.0000   0.0000   0.0000   0.0000   0.0000   0.0000

          k = 0.5000-0.2887 0.0000     band energies (ev):

   -16.6401 -16.5851 -15.6001 -15.5549  -9.0965  -9.0835  -4.1667  -3.7717
    -0.1187   0.3697   5.2395   5.3403  10.7401  10.8295  11.5234  11.6709

     occupation numbers 
     1.0000   1.0000   1.0000   1.0000   1.0000   1.0000   1.0000   1.0000
     0.0000   0.0000   0.0000   0.0000   0.0000   0.0000   0.0000   0.0000

          k =-0.5000-0.2887 0.0000     band energies (ev):

   -16.6401 -16.5851 -15.6001 -15.5549  -9.0965  -9.0835  -4.1667  -3.7717
    -0.1187   0.3698   5.2398   5.3405  10.7889  10.8570  11.5290  11.6655

     occupation numbers 
     1.0000   1.0000   1.0000   1.0000   1.0000   1.0000   1.0000   1.0000
     0.0000   0.0000   0.0000   0.0000   0.0000   0.0000   0.0000   0.0000

          k =-0.0833 0.1443 0.0000     band energies (ev):

   -21.2685 -21.1671  -8.8488  -8.0892  -7.4447  -7.4302  -6.8110  -6.8037
     3.9292   4.4907   5.6264   6.2730   6.3073   6.5451   7.3003   7.4272

     occupation numbers 
     1.0000   1.0000   1.0000   1.0000   1.0000   1.0000   1.0000   1.0000
     0.0000   0.0000   0.0000   0.0000   0.0000   0.0000   0.0000   0.0000

          k = 0.1667-0.0000 0.0000     band energies (ev):

   -21.2686 -21.1671  -8.8484  -8.0895  -7.4461  -7.4267  -6.8141  -6.8029
     3.9247   4.5169   5.4004   6.2322   6.2905   6.5295   7.4060   7.4471

     occupation numbers 
     1.0000   1.0000   1.0000   1.0000   1.0000   1.0000   1.0000   1.0000
     0.0000   0.0000   0.0000   0.0000   0.0000   0.0000   0.0000   0.0000

          k =-0.0833 0.2406 0.0000     band energies (ev):

   -20.6333 -20.5360  -9.0710  -9.0460  -8.0888  -7.7564  -7.7458  -7.3517
     4.7882   5.3696   6.0458   6.2565   6.4516   6.5173   6.8683   7.4187

     occupation numbers 
     1.0000   1.0000   1.0000   1.0000   1.0000   1.0000   1.0000   1.0000
     0.0000   0.0000   0.0000   0.0000   0.0000   0.0000   0.0000   0.0000

          k =-0.1667 0.1925 0.0000     band energies (ev):

   -20.6332 -20.5361  -9.0704  -9.0456  -8.0883  -7.7583  -7.7449  -7.3523
     4.7889   5.3668   6.0421   6.2566   6.4262   6.5337   6.7436   7.4254

     occupation numbers 
     1.0000   1.0000   1.0000   1.0000   1.0000   1.0000   1.0000   1.0000
     0.0000   0.0000   0.0000   0.0000   0.0000   0.0000   0.0000   0.0000

          k = 0.2500 0.0481 0.0000     band energies (ev):

   -20.6332 -20.5361  -9.0721  -9.0430  -8.0878  -7.7598  -7.7445  -7.3530
     4.7817   5.3660   6.0178   6.2149   6.2977   6.4945   6.5503   7.3256

     occupation numbers 
     1.0000   1.0000   1.0000   1.0000   1.0000   1.0000   1.0000   1.0000
     0.0000   0.0000   0.0000   0.0000   0.0000   0.0000   0.0000   0.0000

          k =-0.1667-0.1925 0.0000     band energies (ev):

   -20.6333 -20.5361  -9.0704  -9.0456  -8.0882  -7.7583  -7.7449  -7.3523
     4.7822   5.3691   6.0409   6.2578   6.4143   6.5315   6.6609   7.3915

     occupation numbers 
     1.0000   1.0000   1.0000   1.0000   1.0000   1.0000   1.0000   1.0000
     0.0000   0.0000   0.0000   0.0000   0.0000   0.0000   0.0000   0.0000

          k = 0.2500-0.0481 0.0000     band energies (ev):

   -20.6332 -20.5361  -9.0721  -9.0430  -8.0877  -7.7598  -7.7445  -7.3529
     4.7832   5.3661   6.0184   6.2850   6.3579   6.5059   6.6158   7.4381

     occupation numbers 
     1.0000   1.0000   1.0000   1.0000   1.0000   1.0000   1.0000   1.0000
     0.0000   0.0000   0.0000   0.0000   0.0000   0.0000   0.0000   0.0000

          k =-0.0833 0.3368 0.0000     band energies (ev):

   -19.6916 -19.6004 -11.0551 -11.0175  -8.6090  -8.5952  -6.9853  -6.2852
     3.9641   4.2842   5.9952   6.3259   6.4367   6.7275   7.6799   8.6410

     occupation numbers 
     1.0000   1.0000   1.0000   1.0000   1.0000   1.0000   1.0000   1.0000
     0.0000   0.0000   0.0000   0.0000   0.0000   0.0000   0.0000   0.0000

          k =-0.2500 0.2406 0.0000     band energies (ev):

   -19.6914 -19.6005 -11.0547 -11.0170  -8.6113  -8.5940  -6.9829  -6.2881
     3.9642   4.2858   5.9878   6.3524   6.4206   6.7291   7.6316   8.5575

     occupation numbers 
     1.0000   1.0000   1.0000   1.0000   1.0000   1.0000   1.0000   1.0000
     0.0000   0.0000   0.0000   0.0000   0.0000   0.0000   0.0000   0.0000

          k = 0.3333 0.0962 0.0000     band energies (ev):

   -19.6914 -19.6006 -11.0557 -11.0156  -8.6118  -8.5940  -6.9821  -6.2891
     3.9426   4.3106   5.9906   6.3324   6.4346   6.7274   7.7620   8.6929

     occupation numbers 
     1.0000   1.0000   1.0000   1.0000   1.0000   1.0000   1.0000   1.0000
     0.0000   0.0000   0.0000   0.0000   0.0000   0.0000   0.0000   0.0000

          k =-0.2500-0.2406 0.0000     band energies (ev):

   -19.6914 -19.6005 -11.0547 -11.0170  -8.6113  -8.5940  -6.9829  -6.2881
     3.9641   4.2859   5.9887   6.3528   6.4207   6.7393   7.6118   8.5317

     occupation numbers 
     1.0000   1.0000   1.0000   1.0000   1.0000   1.0000   1.0000   1.0000
     0.0000   0.0000   0.0000   0.0000   0.0000   0.0000   0.0000   0.0000

          k = 0.3333-0.0962 0.0000     band energies (ev):

   -19.6914 -19.6006 -11.0557 -11.0156  -8.6118  -8.5940  -6.9821  -6.2891
     3.9421   4.3106   5.9897   6.3321   6.4345   6.7257   7.8009   8.7638

     occupation numbers 
     1.0000   1.0000   1.0000   1.0000   1.0000   1.0000   1.0000   1.0000
     0.0000   0.0000   0.0000   0.0000   0.0000   0.0000   0.0000   0.0000

          k =-0.0833 0.4330 0.0000     band energies (ev):

   -18.4632 -18.3797 -13.0997 -13.0501  -9.2239  -9.2083  -5.6237  -4.9795
     1.8005   2.2519   6.0948   6.1330   7.7975   8.4609   9.3564  10.0734

     occupation numbers 
     1.0000   1.0000   1.0000   1.0000   1.0000   1.0000   1.0000   1.0000
     0.0000   0.0000   0.0000   0.0000   0.0000   0.0000   0.0000   0.0000

          k =-0.3333 0.2887 0.0000     band energies (ev):

   -18.4628 -18.3800 -13.0993 -13.0497  -9.2261  -9.2072  -5.6136  -4.9922
     1.8167   2.2404   6.0604   6.1697   7.7998   8.4586   9.3605  10.1017

     occupation numbers 
     1.0000   1.0000   1.0000   1.0000   1.0000   1.0000   1.0000   1.0000
     0.0000   0.0000   0.0000   0.0000   0.0000   0.0000   0.0000   0.0000

          k = 0.4167 0.1443 0.0000     band energies (ev):

   -18.4628 -18.3801 -13.0999 -13.0489  -9.2263  -9.2072  -5.6127  -4.9932
     1.8006   2.2585   6.0603   6.1674   7.8012   8.4408   9.4168  10.2434

     occupation numbers 
     1.0000   1.0000   1.0000   1.0000   1.0000   1.0000   1.0000   1.0000
     0.0000   0.0000   0.0000   0.0000   0.0000   0.0000   0.0000   0.0000

          k =-0.3333-0.2887 0.0000     band energies (ev):

   -18.4628 -18.3800 -13.0993 -13.0497  -9.2261  -9.2072  -5.6136  -4.9922
     1.8169   2.2409   6.0604   6.1696   7.8008   8.4491   9.4415  10.2429

     occupation numbers 
     1.0000   1.0000   1.0000   1.0000   1.0000   1.0000   1.0000   1.0000
     0.0000   0.0000   0.0000   0.0000   0.0000   0.0000   0.0000   0.0000

          k = 0.4167-0.1443 0.0000     band energies (ev):

   -18.4627 -18.3801 -13.0999 -13.0489  -9.2263  -9.2072  -5.6127  -4.9932
     1.8005   2.2584   6.0603   6.1675   7.8022   8.4463   9.3784  10.1253

     occupation numbers 
     1.0000   1.0000   1.0000   1.0000   1.0000   1.0000   1.0000   1.0000
     0.0000   0.0000   0.0000   0.0000   0.0000   0.0000   0.0000   0.0000

          k =-0.0833 0.5292 0.0000     band energies (ev):

   -17.0275 -16.9514 -14.9741 -14.9148  -9.5428  -9.5266  -4.3366  -3.7685
     0.0678   0.6378   5.9618   6.0004   9.8256  10.5411  11.1751  11.8955

     occupation numbers 
     1.0000   1.0000   1.0000   1.0000   1.0000   1.0000   1.0000   1.0000
     0.0000   0.0000   0.0000   0.0000   0.0000   0.0000   0.0000   0.0000

          k =-0.4167 0.3368 0.0000     band energies (ev):

   -17.0250 -16.9542 -14.9724 -14.9155  -9.5450  -9.5254  -4.2914  -3.8278
     0.1262   0.5966   5.9268   6.0364   9.8158  10.5284  11.1990  11.8999

     occupation numbers 
     1.0000   1.0000   1.0000   1.0000   1.0000   1.0000   1.0000   1.0000
     0.0000   0.0000   0.0000   0.0000   0.0000   0.0000   0.0000   0.0000

          k = 0.5000 0.1925 0.0000     band energies (ev):

   -17.0249 -16.9543 -14.9727 -14.9152  -9.5451  -9.5254  -4.2911  -3.8279
     0.1173   0.6057   5.9265   6.0361   9.8183  10.5060  11.2367  11.8805

     occupation numbers 
     1.0000   1.0000   1.0000   1.0000   1.0000   1.0000   1.0000   1.0000
     0.0000   0.0000   0.0000   0.0000   0.0000   0.0000   0.0000   0.0000

          k =-0.4167-0.3368 0.0000     band energies (ev):

   -17.0250 -16.9543 -14.9724 -14.9155  -9.5450  -9.5254  -4.2914  -3.8278
     0.1263   0.5966   5.9268   6.0364   9.8212  10.5296  11.1728  11.8738

     occupation numbers 
     1.0000   1.0000   1.0000   1.0000   1.0000   1.0000   1.0000   1.0000
     0.0000   0.0000   0.0000   0.0000   0.0000   0.0000   0.0000   0.0000

          k = 0.5000-0.1925 0.0000     band energies (ev):

   -17.0249 -16.9543 -14.9727 -14.9152  -9.5451  -9.5253  -4.2911  -3.8279
     0.1173   0.6056   5.9265   6.0361   9.8147  10.5093  11.2690  11.8725

     occupation numbers 
     1.0000   1.0000   1.0000   1.0000   1.0000   1.0000   1.0000   1.0000
     0.0000   0.0000   0.0000   0.0000   0.0000   0.0000   0.0000   0.0000

          k =-0.1667 0.2887 0.0000     band energies (ev):

   -19.8478 -19.7557 -10.3521 -10.3264  -9.0372  -9.0200  -7.1608  -6.4558
     4.3983   4.6439   5.8699   6.4869   7.5526   7.7083   7.8725   9.1289

     occupation numbers 
     1.0000   1.0000   1.0000   1.0000   1.0000   1.0000   1.0000   1.0000
     0.0000   0.0000   0.0000   0.0000   0.0000   0.0000   0.0000   0.0000

          k = 0.3333-0.0000 0.0000     band energies (ev):

   -19.8477 -19.7558 -10.3562 -10.3206  -9.0414  -9.0176  -7.1592  -6.4579
     4.3537   4.6936   5.8587   6.4861   7.5379   7.6880   7.8794   9.1171

     occupation numbers 
     1.0000   1.0000   1.0000   1.0000   1.0000   1.0000   1.0000   1.0000
     0.0000   0.0000   0.0000   0.0000   0.0000   0.0000   0.0000   0.0000

          k =-0.1667 0.3849 0.0000     band energies (ev):

   -18.7676 -18.6825 -12.0116 -11.9734 -10.0514 -10.0273  -5.9229  -5.2642
     2.5041   2.8174   7.3449   7.8704   8.0185   8.0968  10.4242  10.6413

     occupation numbers 
     1.0000   1.0000   1.0000   1.0000   1.0000   1.0000   1.0000   1.0000
     0.0000   0.0000   0.0000   0.0000   0.0000   0.0000   0.0000   0.0000

          k =-0.2500 0.3368 0.0000     band energies (ev):

   -18.7675 -18.6827 -12.0113 -11.9730 -10.0522 -10.0272  -5.9200  -5.2678
     2.5045   2.8192   7.3277   7.9222   7.9692   8.1083  10.4585  10.5761

     occupation numbers 
     1.0000   1.0000   1.0000   1.0000   1.0000   1.0000   1.0000   1.0000
     0.0000   0.0000   0.0000   0.0000   0.0000   0.0000   0.0000   0.0000

          k = 0.4167 0.0481 0.0000     band energies (ev):

   -18.7673 -18.6827 -12.0142 -11.9694 -10.0546 -10.0257  -5.9174  -5.2707
     2.4599   2.8684   7.3499   7.8532   8.0260   8.1001  10.5051  10.6022

     occupation numbers 
     1.0000   1.0000   1.0000   1.0000   1.0000   1.0000   1.0000   1.0000
     0.0000   0.0000   0.0000   0.0000   0.0000   0.0000   0.0000   0.0000

          k =-0.2500-0.3368 0.0000     band energies (ev):

   -18.7676 -18.6827 -12.0113 -11.9730 -10.0522 -10.0273  -5.9201  -5.2678
     2.5034   2.8189   7.3147   7.9114   7.9601   8.1021   9.0590  10.5311

     occupation numbers 
     1.0000   1.0000   1.0000   1.0000   1.0000   1.0000   1.0000   1.0000
     0.0000   0.0000   0.0000   0.0000   0.0000   0.0000   0.0000   0.0000

          k = 0.4167-0.0481 0.0000     band energies (ev):

   -18.7674 -18.6827 -12.0142 -11.9694 -10.0546 -10.0257  -5.9175  -5.2707
     2.4591   2.8680   7.3151   7.8581   8.0081   8.1062   9.0900  10.5229

     occupation numbers 
     1.0000   1.0000   1.0000   1.0000   1.0000   1.0000   1.0000   1.0000
     0.0000   0.0000   0.0000   0.0000   0.0000   0.0000   0.0000   0.0000

          k =-0.1667 0.4811 0.0000     band energies (ev):

   -17.4297 -17.3525 -13.8506 -13.7990 -10.6130 -10.5844  -4.5170  -3.9228
     0.6307   1.0462   7.7324   7.8364   9.2197   9.8522  11.8701  12.5818

     occupation numbers 
     1.0000   1.0000   1.0000   1.0000   1.0000   1.0000   1.0000   1.0000
     0.0000   0.0000   0.0000   0.0000   0.0000   0.0000   0.0000   0.0000

          k =-0.3333 0.3849 0.0000     band energies (ev):

   -17.4290 -17.3533 -13.8500 -13.7988 -10.6139 -10.5844  -4.4992  -3.9461
     0.6440   1.0390   7.7074   7.8668   9.2017   9.8430  10.2169  11.8042

     occupation numbers 
     1.0000   1.0000   1.0000   1.0000   1.0000   1.0000   1.0000   1.0000
     0.0000   0.0000   0.0000   0.0000   0.0000   0.0000   0.0000   0.0000

          k = 0.5000 0.0962 0.0000     band energies (ev):

   -17.4288 -17.3535 -13.8515 -13.7971 -10.6147 -10.5839  -4.4967  -3.9484
     0.6097   1.0756   7.7065   7.8604   9.2132   9.7819  10.3318  11.8625

     occupation numbers 
     1.0000   1.0000   1.0000   1.0000   1.0000   1.0000   1.0000   1.0000
     0.0000   0.0000   0.0000   0.0000   0.0000   0.0000   0.0000   0.0000

          k =-0.3333-0.3849 0.0000     band energies (ev):

   -17.4290 -17.3533 -13.8501 -13.7988 -10.6139 -10.5844  -4.4991  -3.9461
     0.6441   1.0389   7.7072   7.8665   9.2039   9.8222  10.2593  11.7621

     occupation numbers 
     1.0000   1.0000   1.0000   1.0000   1.0000   1.0000   1.0000   1.0000
     0.0000   0.0000   0.0000   0.0000   0.0000   0.0000   0.0000   0.0000

          k = 0.5000-0.0962 0.0000     band energies (ev):

   -17.4288 -17.3535 -13.8515 -13.7971 -10.6147 -10.5840  -4.4967  -3.9484
     0.6097   1.0757   7.7064   7.8605   9.2012   9.7926  10.3288  11.8299

     occupation numbers 
     1.0000   1.0000   1.0000   1.0000   1.0000   1.0000   1.0000   1.0000
     0.0000   0.0000   0.0000   0.0000   0.0000   0.0000   0.0000   0.0000

          k =-0.4167 0.4330 0.0000     band energies (ev):

   -16.2323 -16.1798 -15.2192 -15.1752 -10.7947 -10.7637  -3.5778  -3.1902
    -0.3709   0.0553   7.6370   7.7958  10.3626  10.9794  11.3791  11.4764

     occupation numbers 
     1.0000   1.0000   1.0000   1.0000   1.0000   1.0000   1.0000   0.0000
     0.0000   0.0000   0.0000   0.0000   0.0000   0.0000   0.0000   0.0000

          k = 0.5833 0.1443 0.0000     band energies (ev):

   -16.2323 -16.1798 -15.2192 -15.1752 -10.7947 -10.7637  -3.5778  -3.1902
    -0.3709   0.0552   7.6369   7.7957  10.3731  10.9764  11.3818  11.4956

     occupation numbers 
     1.0000   1.0000   1.0000   1.0000   1.0000   1.0000   1.0000   0.0000
     0.0000   0.0000   0.0000   0.0000   0.0000   0.0000   0.0000   0.0000

          k =-0.2500 0.4330 0.0000     band energies (ev):

   -17.5727 -17.4954 -13.0176 -12.9811 -11.4546 -11.4278  -4.5935  -3.9990
     0.9280   1.2503   8.9532   9.5050   9.9230  10.0828  10.2735  10.4493

     occupation numbers 
     1.0000   1.0000   1.0000   1.0000   1.0000   1.0000   1.0000   1.0000
     0.0000   0.0000   0.0000   0.0000   0.0000   0.0000   0.0000   0.0000

          k = 0.5000 0.0000 0.0000     band energies (ev):

   -17.5722 -17.4958 -13.0240 -12.9735 -11.4604 -11.4234  -4.5855  -4.0081
     0.8692   1.3160   8.9345   9.4313   9.9255  10.1684  10.2175  10.4882

     occupation numbers 
     1.0000   1.0000   1.0000   1.0000   1.0000   1.0000   1.0000   1.0000
     0.0000   0.0000   0.0000   0.0000   0.0000   0.0000   0.0000   0.0000

          k =-0.2500 0.5292 0.0000     band energies (ev):

   -16.1956 -16.1262 -14.3848 -14.3356 -12.1408 -12.1060  -3.2327  -2.6966
    -0.5604  -0.1942   9.4482   9.8200  10.1505  10.7655  10.7901  11.7228

     occupation numbers 
     1.0000   1.0000   1.0000   1.0000   1.0000   1.0000   0.0000   0.0000
     0.0000   0.0000   0.0000   0.0000   0.0000   0.0000   0.0000   0.0000

          k =-0.3333 0.4811 0.0000     band energies (ev):

   -16.1939 -16.1282 -14.3837 -14.3357 -12.1418 -12.1057  -3.2028  -2.7383
    -0.5501  -0.1898   9.4598   9.8417  10.1097  10.6057  10.9409  11.6883

     occupation numbers 
     1.0000   1.0000   1.0000   1.0000   1.0000   1.0000   0.0000   0.0000
     0.0000   0.0000   0.0000   0.0000   0.0000   0.0000   0.0000   0.0000

          k = 0.5833 0.0481 0.0000     band energies (ev):

   -16.1934 -16.1287 -14.3878 -14.3312 -12.1438 -12.1043  -3.1975  -2.7409
    -0.6026  -0.1377   9.4181   9.8387  10.1174  10.6130  10.9513  11.6668

     occupation numbers 
     1.0000   1.0000   1.0000   1.0000   1.0000   1.0000   0.0000   0.0000
     0.0000   0.0000   0.0000   0.0000   0.0000   0.0000   0.0000   0.0000

          k =-0.3333-0.4811 0.0000     band energies (ev):

   -16.1939 -16.1282 -14.3837 -14.3358 -12.1419 -12.1057  -3.2029  -2.7383
    -0.5501  -0.1898   9.4291   9.8377  10.1089  10.6055  10.9215  11.6834

     occupation numbers 
     1.0000   1.0000   1.0000   1.0000   1.0000   1.0000   0.0000   0.0000
     0.0000   0.0000   0.0000   0.0000   0.0000   0.0000   0.0000   0.0000

          k = 0.5833-0.0481 0.0000     band energies (ev):

   -16.1934 -16.1287 -14.3878 -14.3312 -12.1438 -12.1042  -3.1975  -2.7409
    -0.6026  -0.1377   9.4377   9.8424  10.1178  10.6189  10.9696  11.6793

     occupation numbers 
     1.0000   1.0000   1.0000   1.0000   1.0000   1.0000   0.0000   0.0000
     0.0000   0.0000   0.0000   0.0000   0.0000   0.0000   0.0000   0.0000

 ------ SPIN DOWN ----------


          k = 0.0000 0.0000 0.0000     band energies (ev):

   -25.4131 -25.3281 -12.6200 -11.9840  -9.8676  -9.8629  -9.8623  -9.8609
     2.0786   2.0996   2.1063   2.1077   2.1180   3.1265   5.4248   5.4464

     occupation numbers 
     1.0000   1.0000   1.0000   1.0000   1.0000   1.0000   1.0000   1.0000
     0.0000   0.0000   0.0000   0.0000   0.0000   0.0000   0.0000   0.0000

          k = 0.0000 0.0962 0.0000     band energies (ev):

   -25.2554 -25.1713 -12.4293 -11.7987 -10.4527 -10.4429 -10.1682 -10.1677
     2.1994   2.2261   2.6016   2.7552   2.7557   3.3578   4.9362   5.0000

     occupation numbers 
     1.0000   1.0000   1.0000   1.0000   1.0000   1.0000   1.0000   1.0000
     0.0000   0.0000   0.0000   0.0000   0.0000   0.0000   0.0000   0.0000

          k = 0.0000 0.1925 0.0000     band energies (ev):

   -24.7844 -24.7029 -11.9483 -11.9304 -11.8664 -11.2495 -10.8951 -10.8947
     2.2279   2.3038   2.9510   3.5651   3.6861   4.0127   4.4897   4.4901

     occupation numbers 
     1.0000   1.0000   1.0000   1.0000   1.0000   1.0000   1.0000   1.0000
     0.0000   0.0000   0.0000   0.0000   0.0000   0.0000   0.0000   0.0000

          k = 0.0000 0.2887 0.0000     band energies (ev):

   -24.0062 -23.9290 -13.8950 -13.8683 -11.7167 -11.7164 -10.9503 -10.3587
     1.6413   1.8578   2.1447   2.1764   3.9552   5.0922   6.8992   6.9017

     occupation numbers 
     1.0000   1.0000   1.0000   1.0000   1.0000   1.0000   1.0000   1.0000
     0.0000   0.0000   0.0000   0.0000   0.0000   0.0000   0.0000   0.0000

          k = 0.0000 0.3849 0.0000     band energies (ev):

   -22.9342 -22.8626 -15.9628 -15.9268 -12.4099 -12.4096  -9.7362  -9.1834
    -0.5055  -0.1821   1.9444   1.9564   5.3439   6.5720   9.5602   9.5676

     occupation numbers 
     1.0000   1.0000   1.0000   1.0000   1.0000   1.0000   1.0000   1.0000
     0.0000   0.0000   0.0000   0.0000   0.0000   0.0000   0.0000   0.0000

          k = 0.0000 0.4811 0.0000     band energies (ev):

   -21.6033 -21.5381 -17.9448 -17.8998 -12.8600 -12.8594  -8.3933  -7.8967
    -2.4928  -2.0653   1.7762   1.7835   7.0591   8.3557  10.3898  11.8869

     occupation numbers 
     1.0000   1.0000   1.0000   1.0000   1.0000   1.0000   1.0000   1.0000
     0.0000   0.0000   0.0000   0.0000   0.0000   0.0000   0.0000   0.0000

          k = 0.0000-0.5774 0.0000     band energies (ev):

   -20.4324 -20.3704 -19.3408 -19.2912 -13.0144 -13.0137  -7.6185  -7.1693
    -3.4975  -3.0041   1.7132   1.7201   8.8528   8.9272  10.3891  10.5310

     occupation numbers 
     1.0000   1.0000   1.0000   1.0000   1.0000   1.0000   1.0000   1.0000
     0.0000   0.0000   0.0000   0.0000   0.0000   0.0000   0.0000   0.0000

          k = 0.0833 0.1443 0.0000     band energies (ev):

   -24.9411 -24.8587 -12.0532 -11.4316 -11.3999 -11.3883 -10.7785 -10.7727
     2.3854   2.5632   2.8327   3.6339   3.6353   3.8509   4.0075   4.1143

     occupation numbers 
     1.0000   1.0000   1.0000   1.0000   1.0000   1.0000   1.0000   1.0000
     0.0000   0.0000   0.0000   0.0000   0.0000   0.0000   0.0000   0.0000

          k = 0.0833 0.2406 0.0000     band energies (ev):

   -24.3165 -24.2376 -12.9824 -12.9623 -11.6934 -11.6850 -11.3118 -10.7100
     2.4059   2.5662   2.7356   2.8266   3.5830   4.6565   5.1399   5.1577

     occupation numbers 
     1.0000   1.0000   1.0000   1.0000   1.0000   1.0000   1.0000   1.0000
     0.0000   0.0000   0.0000   0.0000   0.0000   0.0000   0.0000   0.0000

          k = 0.0833 0.3368 0.0000     band energies (ev):

   -23.3912 -23.3173 -14.9152 -14.8851 -12.5265 -12.5157 -10.2398  -9.6698
     0.4221   0.6697   2.6799   2.7155   4.7450   5.8888   7.2326   7.3049

     occupation numbers 
     1.0000   1.0000   1.0000   1.0000   1.0000   1.0000   1.0000   1.0000
     0.0000   0.0000   0.0000   0.0000   0.0000   0.0000   0.0000   0.0000

          k = 0.0833 0.4330 0.0000     band energies (ev):

   -22.1861 -22.1185 -16.9111 -16.8713 -13.1302 -13.1179  -8.9260  -8.4029
    -1.6348  -1.2865   2.4953   2.5236   6.2926   7.5530   9.2415   9.5469

     occupation numbers 
     1.0000   1.0000   1.0000   1.0000   1.0000   1.0000   1.0000   1.0000
     0.0000   0.0000   0.0000   0.0000   0.0000   0.0000   0.0000   0.0000

          k = 0.0833 0.5292 0.0000     band energies (ev):

   -20.7866 -20.7248 -18.7366 -18.6889 -13.4441 -13.4312  -7.7053  -7.2426
    -3.2707  -2.8282   2.3713   2.4010   8.0360   9.1976   9.3555   9.9719

     occupation numbers 
     1.0000   1.0000   1.0000   1.0000   1.0000   1.0000   1.0000   1.0000
     0.0000   0.0000   0.0000   0.0000   0.0000   0.0000   0.0000   0.0000

          k = 0.1667 0.2887 0.0000     band energies (ev):

   -23.5447 -23.4701 -14.2441 -14.2232 -12.9223 -12.9088 -10.4095  -9.8355
     0.8063   1.0030   3.8655   4.0342   4.6733   5.3576   5.3919   5.7286

     occupation numbers 
     1.0000   1.0000   1.0000   1.0000   1.0000   1.0000   1.0000   1.0000
     0.0000   0.0000   0.0000   0.0000   0.0000   0.0000   0.0000   0.0000

          k = 0.1667 0.3849 0.0000     band energies (ev):

   -22.4846 -22.4156 -15.8627 -15.8320 -13.9099 -13.8910  -9.2104  -8.6756
    -1.0181  -0.7685   4.2510   4.3245   5.8968   6.8711   6.9057   7.1478

     occupation numbers 
     1.0000   1.0000   1.0000   1.0000   1.0000   1.0000   1.0000   1.0000
     0.0000   0.0000   0.0000   0.0000   0.0000   0.0000   0.0000   0.0000

          k = 0.1667 0.4811 0.0000     band energies (ev):

   -21.1749 -21.1123 -17.6520 -17.6106 -14.4638 -14.4412  -7.8604  -7.3783
    -2.8070  -2.4795   4.1126   4.1891   7.4075   8.5456   8.6519   9.0725

     occupation numbers 
     1.0000   1.0000   1.0000   1.0000   1.0000   1.0000   1.0000   1.0000
     0.0000   0.0000   0.0000   0.0000   0.0000   0.0000   0.0000   0.0000

          k = 0.1667 0.5774 0.0000     band energies (ev):

   -20.0312 -19.9719 -18.9768 -18.9304 -14.6423 -14.6188  -7.0373  -6.5964
    -3.7890  -3.4070   4.0437   4.1243   8.1111   8.6182   9.8447   9.8867

     occupation numbers 
     1.0000   1.0000   1.0000   1.0000   1.0000   1.0000   1.0000   1.0000
     1.0000   0.0000   0.0000   0.0000   0.0000   0.0000   0.0000   0.0000

          k = 0.2500 0.4330 0.0000     band energies (ev):

   -21.3141 -21.2514 -16.8628 -16.8332 -15.2568 -15.2356  -7.9271  -7.4459
    -2.5654  -2.3049   6.2183   6.4216   6.5551   6.6687   7.4321   8.3720

     occupation numbers 
     1.0000   1.0000   1.0000   1.0000   1.0000   1.0000   1.0000   1.0000
     0.0000   0.0000   0.0000   0.0000   0.0000   0.0000   0.0000   0.0000

          k = 0.2500 0.5292 0.0000     band energies (ev):

   -19.9726 -19.9161 -18.1888 -18.1493 -15.9270 -15.8998  -6.6220  -6.1865
    -4.0061  -3.7119   6.1999   6.3865   7.3096   7.9727   8.6279   8.7118

     occupation numbers 
     1.0000   1.0000   1.0000   1.0000   1.0000   1.0000   1.0000   1.0000
     1.0000   1.0000   0.0000   0.0000   0.0000   0.0000   0.0000   0.0000

          k = 0.3333 0.5774 0.0000     band energies (ev):

   -18.8333 -18.8276 -18.7885 -18.7814 -16.7168 -16.6892  -5.3268  -5.2795
    -4.9665  -4.9132   6.8373   7.6247   7.6903   8.2011   8.2171   8.5231

     occupation numbers 
     1.0000   1.0000   1.0000   1.0000   1.0000   1.0000   1.0000   1.0000
     1.0000   1.0000   0.0000   0.0000   0.0000   0.0000   0.0000   0.0000

          k =-0.0833 0.0481 0.0000     band energies (ev):

   -25.2553 -25.1713 -12.4299 -11.7988 -10.4511 -10.4422 -10.1721 -10.1660
     2.0911   2.2219   2.3660   2.7504   2.7637   3.3519   4.9272   5.0090

     occupation numbers 
     1.0000   1.0000   1.0000   1.0000   1.0000   1.0000   1.0000   1.0000
     0.0000   0.0000   0.0000   0.0000   0.0000   0.0000   0.0000   0.0000

          k = 0.0833 0.0481 0.0000     band energies (ev):

   -25.2553 -25.1713 -12.4299 -11.7988 -10.4511 -10.4422 -10.1721 -10.1660
     2.0961   2.2219   2.3673   2.7503   2.7636   3.3538   4.9270   5.0085

     occupation numbers 
     1.0000   1.0000   1.0000   1.0000   1.0000   1.0000   1.0000   1.0000
     0.0000   0.0000   0.0000   0.0000   0.0000   0.0000   0.0000   0.0000

          k =-0.1667 0.0962 0.0000     band energies (ev):

   -24.7843 -24.7029 -11.9474 -11.9293 -11.8663 -11.2501 -10.8997 -10.8920
     2.2146   2.3105   2.9508   3.5498   3.7018   4.0150   4.4858   4.4972

     occupation numbers 
     1.0000   1.0000   1.0000   1.0000   1.0000   1.0000   1.0000   1.0000
     0.0000   0.0000   0.0000   0.0000   0.0000   0.0000   0.0000   0.0000

          k = 0.1667 0.0962 0.0000     band energies (ev):

   -24.7843 -24.7029 -11.9474 -11.9293 -11.8662 -11.2501 -10.8997 -10.8920
     2.2182   2.3119   2.9589   3.5498   3.7021   4.0146   4.4855   4.4972

     occupation numbers 
     1.0000   1.0000   1.0000   1.0000   1.0000   1.0000   1.0000   1.0000
     0.0000   0.0000   0.0000   0.0000   0.0000   0.0000   0.0000   0.0000

          k =-0.2500 0.1443 0.0000     band energies (ev):

   -24.0061 -23.9290 -13.8948 -13.8673 -11.7220 -11.7129 -10.9489 -10.3606
     1.6299   1.8672   2.1232   2.1973   3.9534   5.0908   6.8942   6.9008

     occupation numbers 
     1.0000   1.0000   1.0000   1.0000   1.0000   1.0000   1.0000   1.0000
     0.0000   0.0000   0.0000   0.0000   0.0000   0.0000   0.0000   0.0000

          k = 0.2500 0.1443 0.0000     band energies (ev):

   -24.0061 -23.9290 -13.8948 -13.8673 -11.7220 -11.7129 -10.9488 -10.3605
     1.6299   1.8674   2.1238   2.1973   3.9607   5.0764   6.8925   6.9053

     occupation numbers 
     1.0000   1.0000   1.0000   1.0000   1.0000   1.0000   1.0000   1.0000
     0.0000   0.0000   0.0000   0.0000   0.0000   0.0000   0.0000   0.0000

          k =-0.3333 0.1925 0.0000     band energies (ev):

   -22.9340 -22.8628 -15.9627 -15.9260 -12.4153 -12.4055  -9.7309  -9.1897
    -0.5045  -0.1806   1.9108   1.9874   5.3403   6.5737   9.4774   9.5642

     occupation numbers 
     1.0000   1.0000   1.0000   1.0000   1.0000   1.0000   1.0000   1.0000
     0.0000   0.0000   0.0000   0.0000   0.0000   0.0000   0.0000   0.0000

          k = 0.3333 0.1925 0.0000     band energies (ev):

   -22.9341 -22.8628 -15.9627 -15.9258 -12.4154 -12.4054  -9.7311  -9.1897
    -0.5052  -0.1813   1.9108   1.9902   5.3334   6.5323   7.6591   9.5627

     occupation numbers 
     1.0000   1.0000   1.0000   1.0000   1.0000   1.0000   1.0000   1.0000
     0.0000   0.0000   0.0000   0.0000   0.0000   0.0000   0.0000   0.0000

          k =-0.4167 0.2406 0.0000     band energies (ev):

   -21.6024 -21.5390 -17.9444 -17.8993 -12.8653 -12.8553  -8.3730  -7.9217
    -2.4684  -2.0836   1.7400   1.8203   7.0572   8.3532  10.3891  11.8803

     occupation numbers 
     1.0000   1.0000   1.0000   1.0000   1.0000   1.0000   1.0000   1.0000
     0.0000   0.0000   0.0000   0.0000   0.0000   0.0000   0.0000   0.0000

          k = 0.4167 0.2406 0.0000     band energies (ev):

   -21.6025 -21.5390 -17.9444 -17.8994 -12.8653 -12.8553  -8.3730  -7.9217
    -2.4694  -2.0843   1.7400   1.8200   7.0528   8.3343   9.1850  10.3686

     occupation numbers 
     1.0000   1.0000   1.0000   1.0000   1.0000   1.0000   1.0000   1.0000
     0.0000   0.0000   0.0000   0.0000   0.0000   0.0000   0.0000   0.0000

          k = 0.5000-0.2887 0.0000     band energies (ev):

   -20.4244 -20.3797 -19.3334 -19.2966 -13.0200 -13.0094  -7.5624  -7.2389
    -3.4363  -3.0503   1.6755   1.7582   8.8615   8.9060  10.2161  10.7443

     occupation numbers 
     1.0000   1.0000   1.0000   1.0000   1.0000   1.0000   1.0000   1.0000
     0.0000   0.0000   0.0000   0.0000   0.0000   0.0000   0.0000   0.0000

          k =-0.5000-0.2887 0.0000     band energies (ev):

   -20.4244 -20.3797 -19.3334 -19.2967 -13.0199 -13.0094  -7.5624  -7.2389
    -3.4361  -3.0504   1.6753   1.7579   8.8550   8.9202  10.1890  10.7484

     occupation numbers 
     1.0000   1.0000   1.0000   1.0000   1.0000   1.0000   1.0000   1.0000
     0.0000   0.0000   0.0000   0.0000   0.0000   0.0000   0.0000   0.0000

          k =-0.0833 0.1443 0.0000     band energies (ev):

   -24.9411 -24.8587 -12.0530 -11.4317 -11.3999 -11.3882 -10.7785 -10.7727
     2.3871   2.5638   2.8299   3.6339   3.6352   3.8698   4.0075   4.1143

     occupation numbers 
     1.0000   1.0000   1.0000   1.0000   1.0000   1.0000   1.0000   1.0000
     0.0000   0.0000   0.0000   0.0000   0.0000   0.0000   0.0000   0.0000

          k = 0.1667-0.0000 0.0000     band energies (ev):

   -24.9410 -24.8587 -12.0528 -11.4318 -11.4010 -11.3852 -10.7813 -10.7723
     2.3893   2.5559   2.8350   3.6205   3.6516   3.8076   3.9892   4.1332

     occupation numbers 
     1.0000   1.0000   1.0000   1.0000   1.0000   1.0000   1.0000   1.0000
     0.0000   0.0000   0.0000   0.0000   0.0000   0.0000   0.0000   0.0000

          k =-0.0833 0.2406 0.0000     band energies (ev):

   -24.3165 -24.2376 -12.9825 -12.9623 -11.6934 -11.6851 -11.3117 -10.7101
     2.4060   2.5661   2.7394   2.8284   3.5952   4.6186   5.1385   5.1566

     occupation numbers 
     1.0000   1.0000   1.0000   1.0000   1.0000   1.0000   1.0000   1.0000
     0.0000   0.0000   0.0000   0.0000   0.0000   0.0000   0.0000   0.0000

          k =-0.1667 0.1925 0.0000     band energies (ev):

   -24.3165 -24.2376 -12.9819 -12.9619 -11.6952 -11.6843 -11.3113 -10.7106
     2.3993   2.5679   2.7302   2.8402   3.5858   4.6545   5.1449   5.1537

     occupation numbers 
     1.0000   1.0000   1.0000   1.0000   1.0000   1.0000   1.0000   1.0000
     0.0000   0.0000   0.0000   0.0000   0.0000   0.0000   0.0000   0.0000

          k = 0.2500 0.0481 0.0000     band energies (ev):

   -24.3164 -24.2376 -12.9832 -12.9597 -11.6964 -11.6842 -11.3108 -10.7112
     2.3798   2.5950   2.7269   2.8324   3.5871   4.6525   5.1314   5.1689

     occupation numbers 
     1.0000   1.0000   1.0000   1.0000   1.0000   1.0000   1.0000   1.0000
     0.0000   0.0000   0.0000   0.0000   0.0000   0.0000   0.0000   0.0000

          k =-0.1667-0.1925 0.0000     band energies (ev):

   -24.3165 -24.2376 -12.9819 -12.9620 -11.6952 -11.6843 -11.3113 -10.7106
     2.3995   2.5678   2.7287   2.8405   3.5805   4.6548   5.1454   5.1534

     occupation numbers 
     1.0000   1.0000   1.0000   1.0000   1.0000   1.0000   1.0000   1.0000
     0.0000   0.0000   0.0000   0.0000   0.0000   0.0000   0.0000   0.0000

          k = 0.2500-0.0481 0.0000     band energies (ev):

   -24.3164 -24.2376 -12.9832 -12.9597 -11.6964 -11.6842 -11.3107 -10.7112
     2.3801   2.5954   2.7279   2.8321   3.5884   4.6439   5.1331   5.1667

     occupation numbers 
     1.0000   1.0000   1.0000   1.0000   1.0000   1.0000   1.0000   1.0000
     0.0000   0.0000   0.0000   0.0000   0.0000   0.0000   0.0000   0.0000

          k =-0.0833 0.3368 0.0000     band energies (ev):

   -23.3913 -23.3173 -14.9152 -14.8850 -12.5266 -12.5156 -10.2398  -9.6698
     0.4218   0.6697   2.6798   2.7155   4.7488   5.9291   7.2290   7.3038

     occupation numbers 
     1.0000   1.0000   1.0000   1.0000   1.0000   1.0000   1.0000   1.0000
     0.0000   0.0000   0.0000   0.0000   0.0000   0.0000   0.0000   0.0000

          k =-0.2500 0.2406 0.0000     band energies (ev):

   -23.3912 -23.3174 -14.9148 -14.8845 -12.5286 -12.5148 -10.2376  -9.6725
     0.4201   0.6724   2.6558   2.7412   4.7499   5.9193   7.2326   7.2871

     occupation numbers 
     1.0000   1.0000   1.0000   1.0000   1.0000   1.0000   1.0000   1.0000
     0.0000   0.0000   0.0000   0.0000   0.0000   0.0000   0.0000   0.0000

          k = 0.3333 0.0962 0.0000     band energies (ev):

   -23.3910 -23.3174 -14.9156 -14.8833 -12.5290 -12.5148 -10.2368  -9.6734
     0.4016   0.6930   2.6565   2.7379   4.7460   5.9217   7.2305   7.3057

     occupation numbers 
     1.0000   1.0000   1.0000   1.0000   1.0000   1.0000   1.0000   1.0000
     0.0000   0.0000   0.0000   0.0000   0.0000   0.0000   0.0000   0.0000

          k =-0.2500-0.2406 0.0000     band energies (ev):

   -23.3911 -23.3174 -14.9148 -14.8845 -12.5285 -12.5149 -10.2375  -9.6725
     0.4203   0.6724   2.6556   2.7411   4.7436   5.9181   7.2384   7.2986

     occupation numbers 
     1.0000   1.0000   1.0000   1.0000   1.0000   1.0000   1.0000   1.0000
     0.0000   0.0000   0.0000   0.0000   0.0000   0.0000   0.0000   0.0000

          k = 0.3333-0.0962 0.0000     band energies (ev):

   -23.3911 -23.3174 -14.9156 -14.8833 -12.5290 -12.5148 -10.2368  -9.6734
     0.4016   0.6933   2.6567   2.7378   4.7471   5.9262   7.2359   7.3056

     occupation numbers 
     1.0000   1.0000   1.0000   1.0000   1.0000   1.0000   1.0000   1.0000
     0.0000   0.0000   0.0000   0.0000   0.0000   0.0000   0.0000   0.0000

          k =-0.0833 0.4330 0.0000     band energies (ev):

   -22.1862 -22.1184 -16.9111 -16.8713 -13.1302 -13.1179  -8.9260  -8.4029
    -1.6349  -1.2865   2.4952   2.5236   6.2923   7.5244   9.2484   9.5397

     occupation numbers 
     1.0000   1.0000   1.0000   1.0000   1.0000   1.0000   1.0000   1.0000
     0.0000   0.0000   0.0000   0.0000   0.0000   0.0000   0.0000   0.0000

          k =-0.3333 0.2887 0.0000     band energies (ev):

   -22.1858 -22.1186 -16.9107 -16.8706 -13.1322 -13.1170  -8.9168  -8.4141
    -1.6248  -1.2932   2.4672   2.5573   6.2957   7.5222   9.2465   9.5331

     occupation numbers 
     1.0000   1.0000   1.0000   1.0000   1.0000   1.0000   1.0000   1.0000
     0.0000   0.0000   0.0000   0.0000   0.0000   0.0000   0.0000   0.0000

          k = 0.4167 0.1443 0.0000     band energies (ev):

   -22.1857 -22.1188 -16.9112 -16.8701 -13.1324 -13.1171  -8.9159  -8.4151
    -1.6389  -1.2777   2.4672   2.5513   6.2906   7.5550   9.2482   9.5604

     occupation numbers 
     1.0000   1.0000   1.0000   1.0000   1.0000   1.0000   1.0000   1.0000
     0.0000   0.0000   0.0000   0.0000   0.0000   0.0000   0.0000   0.0000

          k =-0.3333-0.2887 0.0000     band energies (ev):

   -22.1858 -22.1187 -16.9107 -16.8707 -13.1322 -13.1171  -8.9168  -8.4141
    -1.6247  -1.2932   2.4672   2.5526   6.2887   7.5215   9.2548   9.5552

     occupation numbers 
     1.0000   1.0000   1.0000   1.0000   1.0000   1.0000   1.0000   1.0000
     0.0000   0.0000   0.0000   0.0000   0.0000   0.0000   0.0000   0.0000

          k = 0.4167-0.1443 0.0000     band energies (ev):

   -22.1857 -22.1188 -16.9112 -16.8701 -13.1324 -13.1171  -8.9159  -8.4151
    -1.6391  -1.2778   2.4672   2.5513   6.2902   7.5149   9.2504   9.5481

     occupation numbers 
     1.0000   1.0000   1.0000   1.0000   1.0000   1.0000   1.0000   1.0000
     0.0000   0.0000   0.0000   0.0000   0.0000   0.0000   0.0000   0.0000

          k =-0.0833 0.5292 0.0000     band energies (ev):

   -20.7865 -20.7247 -18.7364 -18.6887 -13.4440 -13.4312  -7.7053  -7.2426
    -3.2707  -2.8284   2.3773   2.4010   8.0343   9.1959   9.3833   9.9452

     occupation numbers 
     1.0000   1.0000   1.0000   1.0000   1.0000   1.0000   1.0000   1.0000
     0.0000   0.0000   0.0000   0.0000   0.0000   0.0000   0.0000   0.0000

          k =-0.4167 0.3368 0.0000     band energies (ev):

   -20.7843 -20.7272 -18.7348 -18.6890 -13.4460 -13.4301  -7.6663  -7.2912
    -3.2285  -2.8589   2.3425   2.4385   8.0304   9.1062   9.5242   9.9139

     occupation numbers 
     1.0000   1.0000   1.0000   1.0000   1.0000   1.0000   1.0000   1.0000
     0.0000   0.0000   0.0000   0.0000   0.0000   0.0000   0.0000   0.0000

          k = 0.5000 0.1925 0.0000     band energies (ev):

   -20.7843 -20.7274 -18.7351 -18.6891 -13.4461 -13.4302  -7.6660  -7.2913
    -3.2363  -2.8510   2.3424   2.4302   8.0349   9.0679   9.5867   9.9286

     occupation numbers 
     1.0000   1.0000   1.0000   1.0000   1.0000   1.0000   1.0000   1.0000
     0.0000   0.0000   0.0000   0.0000   0.0000   0.0000   0.0000   0.0000

          k =-0.4167-0.3368 0.0000     band energies (ev):

   -20.7842 -20.7274 -18.7347 -18.6893 -13.4458 -13.4303  -7.6663  -7.2912
    -3.2286  -2.8589   2.3492   2.4305   8.0306   9.0992   9.5014   9.9044

     occupation numbers 
     1.0000   1.0000   1.0000   1.0000   1.0000   1.0000   1.0000   1.0000
     0.0000   0.0000   0.0000   0.0000   0.0000   0.0000   0.0000   0.0000

          k = 0.5000-0.1925 0.0000     band energies (ev):

   -20.7843 -20.7274 -18.7351 -18.6891 -13.4461 -13.4303  -7.6660  -7.2913
    -3.2364  -2.8510   2.3424   2.4302   8.0349   9.0650   9.5852   9.9218

     occupation numbers 
     1.0000   1.0000   1.0000   1.0000   1.0000   1.0000   1.0000   1.0000
     0.0000   0.0000   0.0000   0.0000   0.0000   0.0000   0.0000   0.0000

          k =-0.1667 0.2887 0.0000     band energies (ev):

   -23.5447 -23.4701 -14.2441 -14.2232 -12.9224 -12.9088 -10.4096  -9.8355
     0.8062   1.0030   3.8645   4.0337   4.6769   5.3572   5.3918   5.7131

     occupation numbers 
     1.0000   1.0000   1.0000   1.0000   1.0000   1.0000   1.0000   1.0000
     0.0000   0.0000   0.0000   0.0000   0.0000   0.0000   0.0000   0.0000

          k = 0.3333-0.0000 0.0000     band energies (ev):

   -23.5445 -23.4702 -14.2473 -14.2184 -12.9259 -12.9071 -10.4078  -9.8375
     0.7703   1.0422   3.8638   4.0234   4.6792   5.3460   5.4085   5.6857

     occupation numbers 
     1.0000   1.0000   1.0000   1.0000   1.0000   1.0000   1.0000   1.0000
     0.0000   0.0000   0.0000   0.0000   0.0000   0.0000   0.0000   0.0000

          k =-0.1667 0.3849 0.0000     band energies (ev):

   -22.4846 -22.4156 -15.8627 -15.8320 -13.9099 -13.8910  -9.2105  -8.6756
    -1.0180  -0.7686   4.2517   4.3246   5.9067   6.8706   6.9070   7.1526

     occupation numbers 
     1.0000   1.0000   1.0000   1.0000   1.0000   1.0000   1.0000   1.0000
     0.0000   0.0000   0.0000   0.0000   0.0000   0.0000   0.0000   0.0000

          k =-0.2500 0.3368 0.0000     band energies (ev):
[...]
     0.0000   0.0000   0.0000   0.0000   0.0000   0.0000   0.0000   0.0000

          k =-0.3333 0.2887 0.0000 (  3041 PWs)   bands (ev):

   -16.6635 -16.5594 -11.1449 -11.0813  -7.0921  -7.0675  -4.6172  -3.8932
     2.9607   3.4720   7.4502   7.7692   7.8241   7.9898   8.7461   9.8893

     occupation numbers 
     1.0000   1.0000   1.0000   1.0000   1.0000   1.0000   1.0000   1.0000
     0.0000   0.0000   0.0000   0.0000   0.0000   0.0000   0.0000   0.0000

          k = 0.4167 0.1443 0.0000 (  3041 PWs)   bands (ev):

   -16.6634 -16.5595 -11.1456 -11.0805  -7.0924  -7.0675  -4.6161  -3.8944
     2.9425   3.4926   7.4537   7.7439   7.8389   7.9908   8.7469   9.8871

     occupation numbers 
     1.0000   1.0000   1.0000   1.0000   1.0000   1.0000   1.0000   1.0000
     0.0000   0.0000   0.0000   0.0000   0.0000   0.0000   0.0000   0.0000

          k =-0.3333-0.2887 0.0000 (  3041 PWs)   bands (ev):

   -16.6635 -16.5594 -11.1449 -11.0813  -7.0921  -7.0675  -4.6172  -3.8932
     2.9607   3.4720   7.4502   7.7692   7.8241   7.9898   8.7463   9.8893

     occupation numbers 
     1.0000   1.0000   1.0000   1.0000   1.0000   1.0000   1.0000   1.0000
     0.0000   0.0000   0.0000   0.0000   0.0000   0.0000   0.0000   0.0000

          k = 0.4167-0.1443 0.0000 (  3041 PWs)   bands (ev):

   -16.6634 -16.5595 -11.1456 -11.0805  -7.0924  -7.0675  -4.6161  -3.8944
     2.9425   3.4926   7.4537   7.7439   7.8389   7.9908   8.7466   9.8870

     occupation numbers 
     1.0000   1.0000   1.0000   1.0000   1.0000   1.0000   1.0000   1.0000
     0.0000   0.0000   0.0000   0.0000   0.0000   0.0000   0.0000   0.0000

          k =-0.0833 0.5292 0.0000 (  3043 PWs)   bands (ev):

   -15.1848 -15.0888 -13.0850 -13.0098  -7.4169  -7.3955  -3.2849  -2.6195
     1.1155   1.7950   7.5846   7.6332   9.6617  10.1185  10.9549  11.6412

     occupation numbers 
     1.0000   1.0000   1.0000   1.0000   1.0000   1.0000   1.0000   1.0000
     0.0000   0.0000   0.0000   0.0000   0.0000   0.0000   0.0000   0.0000

          k =-0.4167 0.3368 0.0000 (  3043 PWs)   bands (ev):

   -15.1818 -15.0923 -13.0829 -13.0105  -7.4196  -7.3941  -3.2343  -2.6896
     1.1869   1.7464   7.5411   7.6784   9.6629  10.1203  10.9516  11.6119

     occupation numbers 
     1.0000   1.0000   1.0000   1.0000   1.0000   1.0000   1.0000   1.0000
     0.0000   0.0000   0.0000   0.0000   0.0000   0.0000   0.0000   0.0000

          k = 0.5000 0.1925 0.0000 (  3043 PWs)   bands (ev):

   -15.1817 -15.0924 -13.0833 -13.0101  -7.4197  -7.3940  -3.2339  -2.6897
     1.1769   1.7568   7.5409   7.6775   9.6629  10.1125  10.9550  11.6509

     occupation numbers 
     1.0000   1.0000   1.0000   1.0000   1.0000   1.0000   1.0000   1.0000
     0.0000   0.0000   0.0000   0.0000   0.0000   0.0000   0.0000   0.0000

          k =-0.4167-0.3368 0.0000 (  3043 PWs)   bands (ev):

   -15.1818 -15.0923 -13.0829 -13.0106  -7.4196  -7.3941  -3.2343  -2.6896
     1.1869   1.7464   7.5411   7.6784   9.6629  10.1203  10.9516  11.6119

     occupation numbers 
     1.0000   1.0000   1.0000   1.0000   1.0000   1.0000   1.0000   1.0000
     0.0000   0.0000   0.0000   0.0000   0.0000   0.0000   0.0000   0.0000

          k = 0.5000-0.1925 0.0000 (  3043 PWs)   bands (ev):

   -15.1817 -15.0924 -13.0833 -13.0101  -7.4197  -7.3940  -3.2339  -2.6897
     1.1769   1.7568   7.5409   7.6775   9.6629  10.1125  10.9550  11.6509

     occupation numbers 
     1.0000   1.0000   1.0000   1.0000   1.0000   1.0000   1.0000   1.0000
     0.0000   0.0000   0.0000   0.0000   0.0000   0.0000   0.0000   0.0000

          k =-0.1667 0.2887 0.0000 (  3039 PWs)   bands (ev):

   -18.0855 -17.9703  -8.2776  -8.2444  -6.9309  -6.9085  -6.2100  -5.3962
     5.5541   5.7017   5.9635   6.0017   6.7116   7.8770   8.0728   9.4568

     occupation numbers 
     1.0000   1.0000   1.0000   1.0000   1.0000   1.0000   1.0000   1.0000
     0.0000   0.0000   0.0000   0.0000   0.0000   0.0000   0.0000   0.0000

          k = 0.3333-0.0000 0.0000 (  3039 PWs)   bands (ev):

   -18.0854 -17.9704  -8.2828  -8.2369  -6.9364  -6.9053  -6.2081  -5.3986
     5.5545   5.6489   5.9628   6.0619   6.7115   7.8754   8.0724   9.4181

     occupation numbers 
     1.0000   1.0000   1.0000   1.0000   1.0000   1.0000   1.0000   1.0000
     0.0000   0.0000   0.0000   0.0000   0.0000   0.0000   0.0000   0.0000

          k =-0.1667 0.3849 0.0000 (  3045 PWs)   bands (ev):

   -16.9767 -16.8698 -10.0051  -9.9558  -7.9863  -7.9547  -4.9393  -4.1746
     3.7235   4.1035   7.0795   7.4936   8.2825   9.3831   9.4023   9.6819

     occupation numbers 
     1.0000   1.0000   1.0000   1.0000   1.0000   1.0000   1.0000   1.0000
     0.0000   0.0000   0.0000   0.0000   0.0000   0.0000   0.0000   0.0000

          k =-0.2500 0.3368 0.0000 (  3045 PWs)   bands (ev):

   -16.9766 -16.8699 -10.0047  -9.9554  -7.9872  -7.9546  -4.9363  -4.1786
     3.7244   4.1054   7.0790   7.4966   8.2824   9.3839   9.4132   9.6854

     occupation numbers 
     1.0000   1.0000   1.0000   1.0000   1.0000   1.0000   1.0000   1.0000
     0.0000   0.0000   0.0000   0.0000   0.0000   0.0000   0.0000   0.0000

          k = 0.4167 0.0481 0.0000 (  3045 PWs)   bands (ev):

   -16.9764 -16.8701 -10.0083  -9.9509  -7.9902  -7.9527  -4.9334  -4.1820
     3.6727   4.1646   7.0796   7.4912   8.2823   9.3805   9.3939   9.6659

     occupation numbers 
     1.0000   1.0000   1.0000   1.0000   1.0000   1.0000   1.0000   1.0000
     0.0000   0.0000   0.0000   0.0000   0.0000   0.0000   0.0000   0.0000

          k =-0.2500-0.3368 0.0000 (  3045 PWs)   bands (ev):

   -16.9766 -16.8699 -10.0048  -9.9554  -7.9872  -7.9546  -4.9363  -4.1786
     3.7244   4.1054   7.0790   7.4966   8.2824   9.3840   9.4141   9.6854

     occupation numbers 
     1.0000   1.0000   1.0000   1.0000   1.0000   1.0000   1.0000   1.0000
     0.0000   0.0000   0.0000   0.0000   0.0000   0.0000   0.0000   0.0000

          k = 0.4167-0.0481 0.0000 (  3045 PWs)   bands (ev):

   -16.9764 -16.8701 -10.0083  -9.9509  -7.9902  -7.9527  -4.9334  -4.1820
     3.6727   4.1646   7.0796   7.4912   8.2823   9.3805   9.3939   9.6659

     occupation numbers 
     1.0000   1.0000   1.0000   1.0000   1.0000   1.0000   1.0000   1.0000
     0.0000   0.0000   0.0000   0.0000   0.0000   0.0000   0.0000   0.0000

          k =-0.1667 0.4811 0.0000 (  3041 PWs)   bands (ev):

   -15.6003 -15.5029 -11.9161 -11.8502  -8.5625  -8.5252  -3.4858  -2.7910
     1.7606   2.2627   8.9811   9.3428   9.4963   9.5623  10.2630  10.7225

     occupation numbers 
     1.0000   1.0000   1.0000   1.0000   1.0000   1.0000   1.0000   1.0000
     0.0000   0.0000   0.0000   0.0000   0.0000   0.0000   0.0000   0.0000

          k =-0.3333 0.3849 0.0000 (  3041 PWs)   bands (ev):

   -15.5994 -15.5038 -11.9155 -11.8498  -8.5635  -8.5252  -3.4662  -2.8178
     1.7805   2.2543   8.9740   9.4003   9.4353   9.5911  10.2467  10.6897

     occupation numbers 
     1.0000   1.0000   1.0000   1.0000   1.0000   1.0000   1.0000   1.0000
     0.0000   0.0000   0.0000   0.0000   0.0000   0.0000   0.0000   0.0000

          k = 0.5000 0.0962 0.0000 (  3041 PWs)   bands (ev):

   -15.5991 -15.5041 -11.9172 -11.8478  -8.5645  -8.5246  -3.4633  -2.8204
     1.7411   2.2974   8.9783   9.3221   9.4780   9.5893  10.2673  10.7582

     occupation numbers 
     1.0000   1.0000   1.0000   1.0000   1.0000   1.0000   1.0000   1.0000
     0.0000   0.0000   0.0000   0.0000   0.0000   0.0000   0.0000   0.0000

          k =-0.3333-0.3849 0.0000 (  3041 PWs)   bands (ev):

   -15.5994 -15.5038 -11.9155 -11.8498  -8.5635  -8.5252  -3.4662  -2.8178
     1.7805   2.2543   8.9740   9.4003   9.4353   9.5911  10.2467  10.6898

     occupation numbers 
     1.0000   1.0000   1.0000   1.0000   1.0000   1.0000   1.0000   1.0000
     0.0000   0.0000   0.0000   0.0000   0.0000   0.0000   0.0000   0.0000

          k = 0.5000-0.0962 0.0000 (  3041 PWs)   bands (ev):

   -15.5991 -15.5041 -11.9172 -11.8478  -8.5645  -8.5246  -3.4633  -2.8204
     1.7411   2.2974   8.9783   9.3221   9.4780   9.5893  10.2673  10.7582

     occupation numbers 
     1.0000   1.0000   1.0000   1.0000   1.0000   1.0000   1.0000   1.0000
     0.0000   0.0000   0.0000   0.0000   0.0000   0.0000   0.0000   0.0000

          k =-0.4167 0.4330 0.0000 (  3008 PWs)   bands (ev):

   -14.3564 -14.2898 -13.3380 -13.2825  -8.7485  -8.7083  -2.4931  -2.0395
     0.7163   1.2203   9.2916   9.4985  10.8207  11.1179  11.3187  11.3455

     occupation numbers 
     1.0000   1.0000   1.0000   1.0000   1.0000   1.0000   1.0000   1.0000
     0.0000   0.0000   0.0000   0.0000   0.0000   0.0000   0.0000   0.0000

          k = 0.5833 0.1443 0.0000 (  3008 PWs)   bands (ev):

   -14.3564 -14.2898 -13.3380 -13.2825  -8.7485  -8.7083  -2.4931  -2.0395
     0.7163   1.2203   9.2916   9.4985  10.8207  11.1179  11.3187  11.3455

     occupation numbers 
     1.0000   1.0000   1.0000   1.0000   1.0000   1.0000   1.0000   1.0000
     0.0000   0.0000   0.0000   0.0000   0.0000   0.0000   0.0000   0.0000

          k =-0.2500 0.4330 0.0000 (  3033 PWs)   bands (ev):

   -15.7476 -15.6500 -11.0352 -10.9885  -9.4632  -9.4286  -3.5700  -2.8751
     2.1141   2.4981   8.7875   9.1492   9.9574  10.2954  11.0799  11.4362

     occupation numbers 
     1.0000   1.0000   1.0000   1.0000   1.0000   1.0000   1.0000   1.0000
     0.0000   0.0000   0.0000   0.0000   0.0000   0.0000   0.0000   0.0000

          k = 0.5000 0.0000 0.0000 (  3033 PWs)   bands (ev):

   -15.7470 -15.6506 -11.0432 -10.9785  -9.4708  -9.4231  -3.5612  -2.8855
     2.0450   2.5776   8.7883   9.1190   9.9783  10.3359  11.0217  11.4499

     occupation numbers 
     1.0000   1.0000   1.0000   1.0000   1.0000   1.0000   1.0000   1.0000
     0.0000   0.0000   0.0000   0.0000   0.0000   0.0000   0.0000   0.0000

          k =-0.2500 0.5292 0.0000 (  3013 PWs)   bands (ev):

   -14.3253 -14.2373 -12.4589 -12.3960 -10.1728 -10.1278  -2.1592  -1.5293
     0.5744   1.0099   9.8778  10.7083  10.8015  11.4988  11.8389  12.2823

     occupation numbers 
     1.0000   1.0000   1.0000   1.0000   1.0000   1.0000   1.0000   1.0000
     0.0000   0.0000   0.0000   0.0000   0.0000   0.0000   0.0000   0.0000

          k =-0.3333 0.4811 0.0000 (  3013 PWs)   bands (ev):

   -14.3232 -14.2398 -12.4575 -12.3961 -10.1740 -10.1274  -2.1258  -1.5790
     0.5888   1.0158   9.8665  10.7291  10.7859  11.4807  11.7918  12.2920

     occupation numbers 
     1.0000   1.0000   1.0000   1.0000   1.0000   1.0000   1.0000   1.0000
     0.0000   0.0000   0.0000   0.0000   0.0000   0.0000   0.0000   0.0000

          k = 0.5833 0.0481 0.0000 (  3013 PWs)   bands (ev):

   -14.3226 -14.2405 -12.4626 -12.3904 -10.1764 -10.1256  -2.1195  -1.5817
     0.5268   1.0778   9.8391  10.7102  10.8585  11.4730  11.8424  12.2349

     occupation numbers 
     1.0000   1.0000   1.0000   1.0000   1.0000   1.0000   1.0000   1.0000
     0.0000   0.0000   0.0000   0.0000   0.0000   0.0000   0.0000   0.0000

          k =-0.3333-0.4811 0.0000 (  3013 PWs)   bands (ev):

   -14.3232 -14.2398 -12.4575 -12.3961 -10.1740 -10.1274  -2.1258  -1.5790
     0.5888   1.0157   9.8665  10.7291  10.7859  11.4807  11.7918  12.2920

     occupation numbers 
     1.0000   1.0000   1.0000   1.0000   1.0000   1.0000   1.0000   1.0000
     0.0000   0.0000   0.0000   0.0000   0.0000   0.0000   0.0000   0.0000

          k = 0.5833-0.0481 0.0000 (  3013 PWs)   bands (ev):

   -14.3226 -14.2405 -12.4626 -12.3904 -10.1764 -10.1256  -2.1195  -1.5817
     0.5268   1.0778   9.8391  10.7102  10.8585  11.4730  11.8424  12.2349

     occupation numbers 
     1.0000   1.0000   1.0000   1.0000   1.0000   1.0000   1.0000   1.0000
     0.0000   0.0000   0.0000   0.0000   0.0000   0.0000   0.0000   0.0000

     the Fermi energy is    -0.3397 ev

!    total energy              =     -45.57830963 Ry
     Harris-Foulkes estimate   =     -45.57830962 Ry
     estimated scf accuracy    <          9.1E-11 Ry

     The total energy is the sum of the following terms:

     one-electron contribution =    -530.59311130 Ry
     hartree contribution      =     268.76951492 Ry
     xc contribution           =     -14.03149943 Ry
     ewald contribution        =     230.27678618 Ry
     smearing contrib. (-TS)   =       0.00000000 Ry

     total magnetization       =    -0.00 Bohr mag/cell
     absolute magnetization    =     0.00 Bohr mag/cell

     convergence has been achieved in  13 iterations

     Forces acting on atoms (Ry/au):

     atom    1 type  1   force =    -0.00033443   -0.00014738   -0.00221710
     atom    2 type  1   force =    -0.00033434    0.00014737   -0.00221710
     atom    3 type  1   force =     0.00033436   -0.00014879    0.00221710
     atom    4 type  1   force =     0.00033441    0.00014879    0.00221711
     The non-local contrib.  to forces
     atom    1 type  1   force =    -0.00018594    0.00005711   -0.00131249
     atom    2 type  1   force =    -0.00018582   -0.00005712   -0.00131251
     atom    3 type  1   force =     0.00018047    0.00005568    0.00131373
     atom    4 type  1   force =     0.00018055   -0.00005566    0.00131373
     The ionic contribution  to forces
     atom    1 type  1   force =    -0.00079445    0.00038633  -14.05379410
     atom    2 type  1   force =    -0.00079445   -0.00038633  -14.05379410
     atom    3 type  1   force =     0.00079445    0.00038633   14.05379410
     atom    4 type  1   force =     0.00079445   -0.00038633   14.05379410
     The local contribution  to forces
     atom    1 type  1   force =     0.00064270   -0.00059091   14.05290904
     atom    2 type  1   force =     0.00064339    0.00059088   14.05290907
     atom    3 type  1   force =    -0.00064332   -0.00059089  -14.05291074
     atom    4 type  1   force =    -0.00064281    0.00059092  -14.05291070
     The core correction contribution to forces
     atom    1 type  1   force =     0.00000000    0.00000000    0.00000000
     atom    2 type  1   force =     0.00000000    0.00000000    0.00000000
     atom    3 type  1   force =     0.00000000    0.00000000    0.00000000
     atom    4 type  1   force =     0.00000000    0.00000000    0.00000000
     The Hubbard contrib.    to forces
     atom    1 type  1   force =     0.00000000    0.00000000    0.00000000
     atom    2 type  1   force =     0.00000000    0.00000000    0.00000000
     atom    3 type  1   force =     0.00000000    0.00000000    0.00000000
     atom    4 type  1   force =     0.00000000    0.00000000    0.00000000
     The SCF correction term to forces
     atom    1 type  1   force =     0.00000056    0.00000010   -0.00001899
     atom    2 type  1   force =    -0.00000016   -0.00000005   -0.00001901
     atom    3 type  1   force =     0.00000006    0.00000010    0.00002058
     atom    4 type  1   force =    -0.00000047   -0.00000013    0.00002055

     Total force =     0.004494     Total SCF correction =     0.000040


     entering subroutine stress ...

          total   stress  (Ry/bohr**3)                   (kbar)     P=   -4.80
  -0.00006483  -0.00000000   0.00000613         -9.54     -0.00      0.90
  -0.00000000  -0.00006695  -0.00000000         -0.00     -9.85     -0.00
   0.00000613  -0.00000000   0.00003393          0.90     -0.00      4.99

     kinetic stress (kbar)   3525.55     -0.00      1.05
                               -0.00   3525.03     -0.00
                                1.05     -0.00   4088.54

     local   stress (kbar)-113477.78     -0.00     -3.50
                               -0.00-113476.22      0.00
                               -3.50      0.00 115799.16

     nonloc. stress (kbar)   -152.49      0.00     -0.07
                                0.00   -152.49      0.00
                               -0.07      0.00   -151.52

     hartree stress (kbar)  55217.42      0.00      1.28
                                0.00  55216.65     -0.00
                                1.28     -0.00 -54872.91

     exc-cor stress (kbar)   -891.33      0.00      0.03
                                0.00   -891.34     -0.00
                                0.03     -0.00   -924.44

     corecor stress (kbar)      0.00      0.00      0.00
                                0.00      0.00      0.00
                                0.00      0.00      0.00

     ewald   stress (kbar)  55769.09      0.00      2.12
                                0.00  55768.52     -0.00
                                2.12     -0.00 -63933.84

     hubbard stress (kbar)      0.00      0.00      0.00
                                0.00      0.00      0.00
                                0.00      0.00      0.00

     london  stress (kbar)      0.00      0.00      0.00
                                0.00      0.00      0.00
                                0.00      0.00      0.00

     XDM     stress (kbar)      0.00      0.00      0.00
                                0.00      0.00      0.00
                                0.00      0.00      0.00

     dft-nl  stress (kbar)      0.00      0.00      0.00
                                0.00      0.00      0.00
                                0.00      0.00      0.00



     Writing output data file g.dos1.save

     init_run     :      9.20s CPU      9.29s WALL (       1 calls)
     electrons    :    280.46s CPU    281.57s WALL (       1 calls)
     forces       :      4.28s CPU      4.29s WALL (       1 calls)
     stress       :      9.91s CPU      9.93s WALL (       1 calls)

     Called by init_run:
     wfcinit      :      7.25s CPU      7.32s WALL (       1 calls)
     potinit      :      0.83s CPU      0.85s WALL (       1 calls)

     Called by electrons:
     c_bands      :    230.03s CPU    230.94s WALL (      13 calls)
     sum_band     :     36.98s CPU     37.15s WALL (      13 calls)
     v_of_rho     :      8.80s CPU      8.81s WALL (      14 calls)
     v_h          :      0.17s CPU      0.17s WALL (      14 calls)
     v_xc         :      8.63s CPU      8.65s WALL (      14 calls)
     newd         :      4.50s CPU      4.50s WALL (      14 calls)
     mix_rho      :      0.64s CPU      0.65s WALL (      13 calls)

     Called by c_bands:
     init_us_2    :      4.64s CPU      4.66s WALL (    4292 calls)
     cegterg      :    222.42s CPU    223.28s WALL (    1924 calls)

     Called by sum_band:
     sum_band:bec :      0.04s CPU      0.04s WALL (    1924 calls)
     addusdens    :      4.79s CPU      4.80s WALL (      13 calls)

     Called by *egterg:
     h_psi        :    134.57s CPU    135.40s WALL (    7492 calls)
     s_psi        :     19.85s CPU     19.87s WALL (    7492 calls)
     g_psi        :      0.93s CPU      0.93s WALL (    5420 calls)
     cdiaghg      :      6.30s CPU      6.31s WALL (    7344 calls)
     cegterg:over :     26.51s CPU     26.55s WALL (    5420 calls)
     cegterg:upda :     16.50s CPU     16.51s WALL (    5420 calls)
     cegterg:last :     10.76s CPU     10.77s WALL (    1974 calls)

     Called by h_psi:
     h_psi:vloc   :     92.48s CPU     93.19s WALL (    7492 calls)
     h_psi:vnl    :     41.37s CPU     41.49s WALL (    7492 calls)
     add_vuspsi   :     19.92s CPU     19.94s WALL (    7492 calls)

     General routines
     calbec       :     31.10s CPU     31.24s WALL (    9712 calls)
     fft          :      4.23s CPU      4.24s WALL (     437 calls)
     ffts         :      0.04s CPU      0.04s WALL (      54 calls)
     fftw         :     79.55s CPU     80.15s WALL (  184124 calls)
     interpolate  :      0.60s CPU      0.60s WALL (      54 calls)

     Parallel routines
     fft_scatter  :     14.04s CPU     14.14s WALL (  184615 calls)

     PWSCF        :  5m 4.59s CPU     5m 5.94s WALL


   This run was terminated on:   6:11:30   1May2020            

=------------------------------------------------------------------------------=
   JOB DONE.
=------------------------------------------------------------------------------=
