
     Program PROJWFC v.5.1 starts on  1May2020 at  8:12:43 

     This program is part of the open-source Quantum ESPRESSO suite
     for quantum simulation of materials; please cite
         "P. Giannozzi et al., J. Phys.:Condens. Matter 21 395502 (2009);
          URL http://www.quantum-espresso.org", 
     in publications or presentations arising from this work. More details at
     http://www.quantum-espresso.org/quote

     Parallel version (MPI), running on     1 processors

   Info: using nr1, nr2, nr3 values from input

   Info: using nr1s, nr2s, nr3s values from input

     IMPORTANT: XC functional enforced from input :
     Exchange-correlation      = PBE ( 1  4  3  4 0)
     Any further DFT definition will be discarded
     Please, verify this is what you really want

               file C.pbe-rrkjus.UPF: wavefunction(s)  2S 2P renormalized

     G-vector sticks info
     --------------------
     sticks:   dense  smooth     PW     G-vecs:    dense   smooth      PW
     Sum         595     241     85                96043    24369    4527

     Generating pointlists ...
     new r_m :   0.2381 (alat units)  1.1104 (a.u.) for type    1

     negative rho (up, down):  7.106E-07 7.106E-07

     Gaussian broadening (read from input): ngauss,degauss=   0    0.010000


     Calling projwave .... 

     Atomic states used for projection
     (read from pseudopotential files):

     state #   1: atom   1 (C  ), wfc  1 (l=0 m= 1)
     state #   2: atom   1 (C  ), wfc  2 (l=1 m= 1)
     state #   3: atom   1 (C  ), wfc  2 (l=1 m= 2)
     state #   4: atom   1 (C  ), wfc  2 (l=1 m= 3)
     state #   5: atom   2 (C  ), wfc  1 (l=0 m= 1)
     state #   6: atom   2 (C  ), wfc  2 (l=1 m= 1)
     state #   7: atom   2 (C  ), wfc  2 (l=1 m= 2)
     state #   8: atom   2 (C  ), wfc  2 (l=1 m= 3)
     state #   9: atom   3 (C  ), wfc  1 (l=0 m= 1)
     state #  10: atom   3 (C  ), wfc  2 (l=1 m= 1)
     state #  11: atom   3 (C  ), wfc  2 (l=1 m= 2)
     state #  12: atom   3 (C  ), wfc  2 (l=1 m= 3)
     state #  13: atom   4 (C  ), wfc  1 (l=0 m= 1)
     state #  14: atom   4 (C  ), wfc  2 (l=1 m= 1)
     state #  15: atom   4 (C  ), wfc  2 (l=1 m= 2)
     state #  16: atom   4 (C  ), wfc  2 (l=1 m= 3)

 k =   0.0000000000  0.0000000000  0.0000000000
==== e(   1) =   -20.02035 eV ==== 
     psi = 0.244*[#   1]+0.244*[#   5]+0.244*[#   9]+0.244*[#  13]+
    |psi|^2 = 0.979
==== e(   2) =   -19.91181 eV ==== 
     psi = 0.246*[#   1]+0.246*[#   5]+0.246*[#   9]+0.246*[#  13]+
    |psi|^2 = 0.986
==== e(   3) =    -8.47645 eV ==== 
     psi = 0.237*[#   2]+0.237*[#   6]+0.237*[#  10]+0.237*[#  14]+
    |psi|^2 = 0.948
==== e(   4) =    -7.68839 eV ==== 
     psi = 0.241*[#   2]+0.241*[#   6]+0.241*[#  10]+0.241*[#  14]+
    |psi|^2 = 0.964
==== e(   5) =    -3.56850 eV ==== 
     psi = 0.250*[#  12]+0.250*[#  16]+0.249*[#   4]+0.249*[#   8]+
    |psi|^2 = 0.997
==== e(   6) =    -3.56680 eV ==== 
     psi = 0.250*[#  11]+0.250*[#  15]+0.249*[#   3]+0.249*[#   7]+
    |psi|^2 = 0.997
==== e(   7) =    -3.55674 eV ==== 
     psi = 0.250*[#   4]+0.250*[#   8]+0.249*[#  12]+0.249*[#  16]+
    |psi|^2 = 0.997
==== e(   8) =    -3.55518 eV ==== 
     psi = 0.250*[#   3]+0.250*[#   7]+0.249*[#  11]+0.249*[#  15]+
    |psi|^2 = 0.997
==== e(   9) =     2.89631 eV ==== 
     psi = 0.002*[#   1]+0.002*[#   5]+0.002*[#   9]+0.002*[#  13]+
    |psi|^2 = 0.013
==== e(  10) =     3.29535 eV ==== 
     psi = 0.005*[#   2]+0.005*[#   6]+0.005*[#  10]+0.005*[#  14]+
    |psi|^2 = 0.021
==== e(  11) =     4.01641 eV ==== 
     psi = 
    |psi|^2 = 0.002
==== e(  12) =     5.22385 eV ==== 
     psi = 0.002*[#   2]+0.002*[#   6]+0.002*[#  10]+0.002*[#  14]+
    |psi|^2 = 0.008

 k =   0.0000000000  0.0461880215  0.0000000000
==== e(   1) =   -19.98252 eV ==== 
     psi = 0.241*[#   1]+0.241*[#   5]+0.241*[#   9]+0.241*[#  13]+0.003*[#   4]+
          +0.003*[#   8]+0.003*[#  12]+0.003*[#  16]+
    |psi|^2 = 0.979
==== e(   2) =   -19.87424 eV ==== 
     psi = 0.243*[#   1]+0.243*[#   5]+0.243*[#   9]+0.243*[#  13]+0.003*[#   4]+
          +0.003*[#   8]+0.003*[#  12]+0.003*[#  16]+
    |psi|^2 = 0.986
==== e(   3) =    -8.43089 eV ==== 
     psi = 0.237*[#   2]+0.237*[#   6]+0.237*[#  10]+0.237*[#  14]+
    |psi|^2 = 0.949
==== e(   4) =    -7.64392 eV ==== 
     psi = 0.241*[#   2]+0.241*[#   6]+0.241*[#  10]+0.241*[#  14]+
    |psi|^2 = 0.965
==== e(   5) =    -3.72384 eV ==== 
     psi = 0.247*[#  12]+0.247*[#  16]+0.247*[#   4]+0.247*[#   8]+0.002*[#   1]+
          +0.002*[#   5]+0.002*[#   9]+0.002*[#  13]+
    |psi|^2 = 0.997
==== e(   6) =    -3.71116 eV ==== 
     psi = 0.247*[#   4]+0.247*[#   8]+0.247*[#  12]+0.247*[#  16]+0.002*[#   1]+
          +0.002*[#   5]+0.002*[#   9]+0.002*[#  13]+
    |psi|^2 = 0.997
==== e(   7) =    -3.64881 eV ==== 
     psi = 0.250*[#  11]+0.250*[#  15]+0.249*[#   3]+0.249*[#   7]+
    |psi|^2 = 0.997
==== e(   8) =    -3.63694 eV ==== 
     psi = 0.250*[#   3]+0.250*[#   7]+0.249*[#  11]+0.249*[#  15]+
    |psi|^2 = 0.997
==== e(   9) =     2.94712 eV ==== 
     psi = 0.002*[#   1]+0.002*[#   5]+0.002*[#   9]+0.002*[#  13]+0.001*[#   4]+
          +0.001*[#   8]+0.001*[#  12]+0.001*[#  16]+
    |psi|^2 = 0.016
==== e(  10) =     3.34680 eV ==== 
     psi = 0.005*[#   2]+0.005*[#   6]+0.005*[#  10]+0.005*[#  14]+
    |psi|^2 = 0.022
==== e(  11) =     4.06834 eV ==== 
     psi = 
    |psi|^2 = 0.003
==== e(  12) =     5.27544 eV ==== 
     psi = 0.002*[#   2]+0.002*[#   6]+0.002*[#  10]+0.002*[#  14]+
    |psi|^2 = 0.008

 k =   0.0000000000  0.0923760431  0.0000000000
==== e(   1) =   -19.86912 eV ==== 
     psi = 0.232*[#   1]+0.232*[#   5]+0.232*[#   9]+0.232*[#  13]+0.013*[#   4]+
          +0.013*[#   8]+0.013*[#  12]+0.013*[#  16]+
    |psi|^2 = 0.979
==== e(   2) =   -19.76161 eV ==== 
     psi = 0.234*[#   1]+0.234*[#   5]+0.234*[#   9]+0.234*[#  13]+0.012*[#   4]+
          +0.012*[#   8]+0.012*[#  12]+0.012*[#  16]+
    |psi|^2 = 0.985
==== e(   3) =    -8.29436 eV ==== 
     psi = 0.238*[#   2]+0.238*[#   6]+0.238*[#  10]+0.238*[#  14]+
    |psi|^2 = 0.952
==== e(   4) =    -7.51071 eV ==== 
     psi = 0.242*[#   2]+0.242*[#   6]+0.242*[#  10]+0.242*[#  14]+
    |psi|^2 = 0.968
==== e(   5) =    -4.16786 eV ==== 
     psi = 0.241*[#  12]+0.241*[#  16]+0.241*[#   4]+0.241*[#   8]+0.008*[#   1]+
          +0.008*[#   5]+0.008*[#   9]+0.008*[#  13]+
    |psi|^2 = 0.997
==== e(   6) =    -4.15245 eV ==== 
     psi = 0.242*[#   4]+0.242*[#   8]+0.241*[#  12]+0.241*[#  16]+0.008*[#   1]+
          +0.008*[#   5]+0.008*[#   9]+0.008*[#  13]+
    |psi|^2 = 0.997
==== e(   7) =    -3.87905 eV ==== 
     psi = 0.250*[#  11]+0.250*[#  15]+0.249*[#   3]+0.249*[#   7]+
    |psi|^2 = 0.997
==== e(   8) =    -3.86659 eV ==== 
     psi = 0.250*[#   3]+0.250*[#   7]+0.249*[#  11]+0.249*[#  15]+
    |psi|^2 = 0.997
==== e(   9) =     3.09955 eV ==== 
     psi = 0.004*[#   4]+0.004*[#   8]+0.004*[#  12]+0.004*[#  16]+0.001*[#   1]+
          +0.001*[#   5]+0.001*[#   9]+0.001*[#  13]+
    |psi|^2 = 0.025
==== e(  10) =     3.50110 eV ==== 
     psi = 0.004*[#   2]+0.004*[#   6]+0.004*[#  10]+0.004*[#  14]+0.001*[#   4]+
          +0.001*[#   8]+0.001*[#  12]+0.001*[#  16]+
    |psi|^2 = 0.023
==== e(  11) =     4.22417 eV ==== 
     psi = 
    |psi|^2 = 0.005
==== e(  12) =     5.43021 eV ==== 
     psi = 0.001*[#   2]+0.001*[#   6]+0.001*[#  10]+0.001*[#  14]+
    |psi|^2 = 0.008

 k =   0.0000000000  0.1385640646  0.0000000000
==== e(   1) =   -19.68043 eV ==== 
     psi = 0.219*[#   1]+0.219*[#   5]+0.219*[#   9]+0.219*[#  13]+0.026*[#   4]+
          +0.026*[#   8]+0.026*[#  12]+0.026*[#  16]+
    |psi|^2 = 0.979
==== e(   2) =   -19.57420 eV ==== 
     psi = 0.221*[#   1]+0.221*[#   5]+0.221*[#   9]+0.221*[#  13]+0.025*[#   4]+
          +0.025*[#   8]+0.025*[#  12]+0.025*[#  16]+
    |psi|^2 = 0.985
==== e(   3) =    -8.06769 eV ==== 
     psi = 0.239*[#   2]+0.239*[#   6]+0.239*[#  10]+0.239*[#  14]+
    |psi|^2 = 0.957
==== e(   4) =    -7.28963 eV ==== 
     psi = 0.243*[#   2]+0.243*[#   6]+0.243*[#  10]+0.243*[#  14]+
    |psi|^2 = 0.972
==== e(   5) =    -4.84626 eV ==== 
     psi = 0.233*[#  12]+0.233*[#  16]+0.232*[#   4]+0.232*[#   8]+0.017*[#   1]+
          +0.017*[#   5]+0.017*[#   9]+0.017*[#  13]+
    |psi|^2 = 0.996
==== e(   6) =    -4.82673 eV ==== 
     psi = 0.233*[#   4]+0.233*[#   8]+0.233*[#  12]+0.233*[#  16]+0.016*[#   1]+
          +0.016*[#   5]+0.016*[#   9]+0.016*[#  13]+
    |psi|^2 = 0.997
==== e(   7) =    -4.21879 eV ==== 
     psi = 0.250*[#  11]+0.250*[#  15]+0.249*[#   3]+0.249*[#   7]+
    |psi|^2 = 0.997
==== e(   8) =    -4.20544 eV ==== 
     psi = 0.250*[#   3]+0.250*[#   7]+0.249*[#  11]+0.249*[#  15]+
    |psi|^2 = 0.997
==== e(   9) =     3.35360 eV ==== 
     psi = 0.007*[#   4]+0.007*[#   8]+0.007*[#  12]+0.007*[#  16]+
    |psi|^2 = 0.035
==== e(  10) =     3.75811 eV ==== 
     psi = 0.004*[#   2]+0.004*[#   6]+0.004*[#  10]+0.004*[#  14]+0.002*[#   4]+
          +0.002*[#   8]+0.002*[#  12]+0.002*[#  16]+
    |psi|^2 = 0.025
==== e(  11) =     4.48389 eV ==== 
     psi = 0.001*[#   4]+0.001*[#   8]+0.001*[#  12]+0.001*[#  16]+
    |psi|^2 = 0.006
==== e(  12) =     5.68802 eV ==== 
     psi = 0.001*[#   2]+0.001*[#   6]+0.001*[#  10]+0.001*[#  14]+
    |psi|^2 = 0.008

 k =   0.0000000000  0.1847520861  0.0000000000
==== e(   1) =   -19.41695 eV ==== 
     psi = 0.204*[#   1]+0.204*[#   5]+0.204*[#   9]+0.204*[#  13]+0.040*[#   4]+
          +0.040*[#   8]+0.040*[#  12]+0.040*[#  16]+
    |psi|^2 = 0.978
==== e(   2) =   -19.31247 eV ==== 
     psi = 0.207*[#   1]+0.207*[#   5]+0.207*[#   9]+0.207*[#  13]+0.039*[#   4]+
          +0.039*[#   8]+0.039*[#  12]+0.039*[#  16]+
    |psi|^2 = 0.985
==== e(   3) =    -7.75223 eV ==== 
     psi = 0.240*[#   2]+0.240*[#   6]+0.240*[#  10]+0.240*[#  14]+
    |psi|^2 = 0.963
==== e(   4) =    -6.98228 eV ==== 
     psi = 0.244*[#   2]+0.244*[#   6]+0.244*[#  10]+0.244*[#  14]+
    |psi|^2 = 0.976
==== e(   5) =    -5.69453 eV ==== 
     psi = 0.222*[#  12]+0.222*[#  16]+0.222*[#   4]+0.222*[#   8]+0.026*[#   1]+
          +0.026*[#   5]+0.026*[#   9]+0.026*[#  13]+
    |psi|^2 = 0.994
==== e(   6) =    -5.67009 eV ==== 
     psi = 0.223*[#   4]+0.223*[#   8]+0.223*[#  12]+0.223*[#  16]+0.026*[#   1]+
          +0.026*[#   5]+0.026*[#   9]+0.026*[#  13]+
    |psi|^2 = 0.996
==== e(   7) =    -4.62242 eV ==== 
     psi = 0.250*[#  11]+0.250*[#  15]+0.249*[#   3]+0.249*[#   7]+
    |psi|^2 = 0.997
==== e(   8) =    -4.60818 eV ==== 
     psi = 0.250*[#   3]+0.250*[#   7]+0.249*[#  11]+0.249*[#  15]+
    |psi|^2 = 0.997
==== e(   9) =     3.70904 eV ==== 
     psi = 0.009*[#   4]+0.009*[#   8]+0.009*[#  12]+0.009*[#  16]+
    |psi|^2 = 0.041
==== e(  10) =     4.11743 eV ==== 
     psi = 0.003*[#   2]+0.003*[#   6]+0.003*[#  10]+0.003*[#  14]+0.003*[#   4]+
          +0.003*[#   8]+0.003*[#  12]+0.003*[#  16]+
    |psi|^2 = 0.025
==== e(  11) =     4.84741 eV ==== 
     psi = 0.002*[#   4]+0.002*[#   8]+0.002*[#  12]+0.002*[#  16]+
    |psi|^2 = 0.007
==== e(  12) =     6.04841 eV ==== 
     psi = 0.001*[#   2]+0.001*[#   6]+0.001*[#  10]+0.001*[#  14]+
    |psi|^2 = 0.007

 k =   0.0000000000  0.2309401077  0.0000000000
==== e(   1) =   -19.07940 eV ==== 
     psi = 0.190*[#   1]+0.190*[#   5]+0.190*[#   9]+0.190*[#  13]+0.054*[#   4]+
          +0.054*[#   8]+0.054*[#  12]+0.054*[#  16]+
    |psi|^2 = 0.977
==== e(   2) =   -18.97716 eV ==== 
     psi = 0.193*[#   1]+0.193*[#   5]+0.193*[#   9]+0.193*[#  13]+0.053*[#   4]+
          +0.053*[#   8]+0.053*[#  12]+0.053*[#  16]+
    |psi|^2 = 0.984
==== e(   3) =    -7.35026 eV ==== 
     psi = 0.242*[#   2]+0.242*[#   6]+0.242*[#  10]+0.242*[#  14]+
    |psi|^2 = 0.970
==== e(   4) =    -6.65421 eV ==== 
     psi = 0.212*[#  12]+0.212*[#  16]+0.212*[#   4]+0.212*[#   8]+0.037*[#   1]+
          +0.037*[#   5]+0.037*[#   9]+0.037*[#  13]+
    |psi|^2 = 0.993
==== e(   5) =    -6.62541 eV ==== 
     psi = 0.207*[#   4]+0.207*[#   8]+0.207*[#  12]+0.207*[#  16]+0.035*[#   1]+
          +0.035*[#   5]+0.035*[#   9]+0.035*[#  13]+0.007*[#   2]+0.007*[#   6]+
          +0.007*[#  10]+0.007*[#  14]+
    |psi|^2 = 0.996
==== e(   6) =    -6.59018 eV ==== 
     psi = 0.238*[#   2]+0.238*[#   6]+0.238*[#  10]+0.238*[#  14]+0.006*[#   4]+
          +0.006*[#   8]+0.006*[#  12]+0.006*[#  16]+0.002*[#   1]+0.002*[#   5]+
          +0.001*[#   9]+0.001*[#  13]+
    |psi|^2 = 0.981
==== e(   7) =    -5.04953 eV ==== 
     psi = 0.250*[#  11]+0.250*[#  15]+0.249*[#   3]+0.249*[#   7]+
    |psi|^2 = 0.997
==== e(   8) =    -5.03440 eV ==== 
     psi = 0.250*[#   3]+0.250*[#   7]+0.249*[#  11]+0.249*[#  15]+
    |psi|^2 = 0.997
==== e(   9) =     4.16537 eV ==== 
     psi = 0.010*[#   4]+0.010*[#   8]+0.010*[#  12]+0.010*[#  16]+
    |psi|^2 = 0.042
==== e(  10) =     4.57811 eV ==== 
     psi = 0.003*[#   4]+0.003*[#   8]+0.003*[#  12]+0.003*[#  16]+0.003*[#   2]+
          +0.003*[#   6]+0.003*[#  10]+0.003*[#  14]+
    |psi|^2 = 0.023
==== e(  11) =     5.31441 eV ==== 
     psi = 0.002*[#   4]+0.002*[#   8]+0.002*[#  12]+0.002*[#  16]+
    |psi|^2 = 0.007
==== e(  12) =     6.50950 eV ==== 
     psi = 0.001*[#   2]+0.001*[#   6]+0.001*[#  10]+0.001*[#  14]+
    |psi|^2 = 0.007

 k =   0.0000000000  0.2771281292  0.0000000000
==== e(   1) =   -18.66881 eV ==== 
     psi = 0.177*[#   1]+0.177*[#   5]+0.177*[#   9]+0.177*[#  13]+0.067*[#   4]+
          +0.067*[#   8]+0.067*[#  12]+0.067*[#  16]+
    |psi|^2 = 0.977
==== e(   2) =   -18.56924 eV ==== 
     psi = 0.180*[#   1]+0.180*[#   5]+0.180*[#   9]+0.180*[#  13]+0.066*[#   4]+
          +0.066*[#   8]+0.066*[#  12]+0.066*[#  16]+
    |psi|^2 = 0.984
==== e(   3) =    -7.67888 eV ==== 
     psi = 0.202*[#  12]+0.202*[#  16]+0.202*[#   4]+0.202*[#   8]+0.046*[#   1]+
          +0.046*[#   5]+0.046*[#   9]+0.046*[#  13]+
    |psi|^2 = 0.991
==== e(   4) =    -7.64354 eV ==== 
     psi = 0.203*[#   4]+0.203*[#   8]+0.203*[#  12]+0.203*[#  16]+0.046*[#   1]+
          +0.046*[#   5]+0.046*[#   9]+0.046*[#  13]+
    |psi|^2 = 0.994
==== e(   5) =    -6.86507 eV ==== 
     psi = 0.244*[#   2]+0.244*[#   6]+0.244*[#  10]+0.244*[#  14]+
    |psi|^2 = 0.977
==== e(   6) =    -6.11991 eV ==== 
     psi = 0.246*[#   2]+0.246*[#   6]+0.246*[#  10]+0.246*[#  14]+
    |psi|^2 = 0.986
==== e(   7) =    -5.46862 eV ==== 
     psi = 0.249*[#  11]+0.249*[#  15]+0.249*[#   3]+0.249*[#   7]+
    |psi|^2 = 0.997
==== e(   8) =    -5.45269 eV ==== 
     psi = 0.250*[#   3]+0.250*[#   7]+0.249*[#  11]+0.249*[#  15]+
    |psi|^2 = 0.997
==== e(   9) =     4.72158 eV ==== 
     psi = 0.009*[#   4]+0.009*[#   8]+0.009*[#  12]+0.009*[#  16]+
    |psi|^2 = 0.038
==== e(  10) =     5.13693 eV ==== 
     psi = 0.003*[#   4]+0.003*[#   8]+0.003*[#  12]+0.003*[#  16]+0.002*[#   2]+
          +0.002*[#   6]+0.002*[#  10]+0.002*[#  14]+
    |psi|^2 = 0.022
==== e(  11) =     5.88360 eV ==== 
     psi = 0.001*[#   4]+0.001*[#   8]+0.001*[#  12]+0.001*[#  16]+
    |psi|^2 = 0.006
==== e(  12) =     6.75302 eV ==== 
     psi = 0.206*[#   2]+0.206*[#   6]+0.206*[#  10]+0.206*[#  14]+
    |psi|^2 = 0.828

 k =   0.0000000000  0.3233161507  0.0000000000
==== e(   1) =   -18.18658 eV ==== 
     psi = 0.165*[#   1]+0.165*[#   5]+0.165*[#   9]+0.165*[#  13]+0.079*[#   4]+
          +0.079*[#   8]+0.079*[#  12]+0.079*[#  16]+
    |psi|^2 = 0.977
==== e(   2) =   -18.09011 eV ==== 
     psi = 0.168*[#   1]+0.168*[#   5]+0.168*[#   9]+0.168*[#  13]+0.078*[#   4]+
          +0.078*[#   8]+0.078*[#  12]+0.078*[#  16]+
    |psi|^2 = 0.983
==== e(   3) =    -8.73294 eV ==== 
     psi = 0.192*[#  12]+0.192*[#  16]+0.192*[#   4]+0.192*[#   8]+0.055*[#   1]+
          +0.055*[#   5]+0.055*[#   9]+0.055*[#  13]+
    |psi|^2 = 0.990
==== e(   4) =    -8.69205 eV ==== 
     psi = 0.193*[#   4]+0.193*[#   8]+0.193*[#  12]+0.193*[#  16]+0.055*[#   1]+
          +0.055*[#   5]+0.055*[#   9]+0.055*[#  13]+
    |psi|^2 = 0.993
==== e(   5) =    -6.30241 eV ==== 
     psi = 0.246*[#   2]+0.246*[#   6]+0.246*[#  10]+0.246*[#  14]+
    |psi|^2 = 0.984
==== e(   6) =    -5.85682 eV ==== 
     psi = 0.249*[#  11]+0.249*[#  15]+0.249*[#   3]+0.249*[#   7]+
    |psi|^2 = 0.997
==== e(   7) =    -5.84026 eV ==== 
     psi = 0.249*[#   3]+0.249*[#   7]+0.249*[#  11]+0.249*[#  15]+
    |psi|^2 = 0.997
==== e(   8) =    -5.57469 eV ==== 
     psi = 0.247*[#   2]+0.247*[#   6]+0.247*[#  10]+0.247*[#  14]+
    |psi|^2 = 0.990
==== e(   9) =     5.37367 eV ==== 
     psi = 0.006*[#   4]+0.006*[#   8]+0.006*[#  12]+0.006*[#  16]+0.003*[#   2]+
          +0.003*[#   6]+0.003*[#  10]+0.003*[#  14]+
    |psi|^2 = 0.037
==== e(  10) =     5.67135 eV ==== 
     psi = 0.229*[#   2]+0.229*[#   6]+0.229*[#  10]+0.229*[#  14]+
    |psi|^2 = 0.918
==== e(  11) =     5.74075 eV ==== 
     psi = 0.037*[#   2]+0.037*[#   6]+0.037*[#  10]+0.037*[#  14]+0.002*[#   4]+
          +0.002*[#   8]+0.002*[#  12]+0.002*[#  16]+
    |psi|^2 = 0.155
==== e(  12) =     6.17694 eV ==== 
     psi = 0.203*[#   2]+0.203*[#   6]+0.203*[#  10]+0.203*[#  14]+
    |psi|^2 = 0.811

 k =   0.0000000000  0.3695041723  0.0000000000
==== e(   1) =   -17.63475 eV ==== 
     psi = 0.155*[#   1]+0.155*[#   5]+0.155*[#   9]+0.155*[#  13]+0.089*[#   4]+
          +0.089*[#   8]+0.089*[#  12]+0.089*[#  16]+
    |psi|^2 = 0.977
==== e(   2) =   -17.54174 eV ==== 
     psi = 0.158*[#   1]+0.158*[#   5]+0.158*[#   9]+0.158*[#  13]+0.088*[#   4]+
          +0.088*[#   8]+0.088*[#  12]+0.088*[#  16]+
    |psi|^2 = 0.984
==== e(   3) =    -9.79012 eV ==== 
     psi = 0.184*[#  12]+0.184*[#  16]+0.184*[#   4]+0.184*[#   8]+0.063*[#   1]+
          +0.063*[#   5]+0.064*[#   9]+0.064*[#  13]+
    |psi|^2 = 0.989
==== e(   4) =    -9.74364 eV ==== 
     psi = 0.185*[#   4]+0.185*[#   8]+0.185*[#  12]+0.185*[#  16]+0.063*[#   1]+
          +0.063*[#   5]+0.063*[#   9]+0.063*[#  13]+
    |psi|^2 = 0.992
==== e(   5) =    -6.19835 eV ==== 
     psi = 0.249*[#  11]+0.249*[#  15]+0.249*[#   3]+0.249*[#   7]+
    |psi|^2 = 0.997
==== e(   6) =    -6.18123 eV ==== 
     psi = 0.249*[#   3]+0.249*[#   7]+0.249*[#  11]+0.249*[#  15]+
    |psi|^2 = 0.997
==== e(   7) =    -5.67110 eV ==== 
     psi = 0.247*[#   2]+0.247*[#   6]+0.247*[#  10]+0.247*[#  14]+
    |psi|^2 = 0.989
==== e(   8) =    -4.96514 eV ==== 
     psi = 0.248*[#   2]+0.248*[#   6]+0.248*[#  10]+0.248*[#  14]+
    |psi|^2 = 0.994
==== e(   9) =     4.53126 eV ==== 
     psi = 0.233*[#   2]+0.233*[#   6]+0.233*[#  10]+0.233*[#  14]+
    |psi|^2 = 0.932
==== e(  10) =     5.00399 eV ==== 
     psi = 0.234*[#   2]+0.234*[#   6]+0.234*[#  10]+0.234*[#  14]+
    |psi|^2 = 0.937
==== e(  11) =     6.12370 eV ==== 
     psi = 0.003*[#   4]+0.003*[#   8]+0.003*[#  12]+0.003*[#  16]+0.002*[#   1]+
          +0.002*[#   5]+0.002*[#   9]+0.002*[#  13]+
    |psi|^2 = 0.020
==== e(  12) =     6.59595 eV ==== 
     psi = 0.005*[#   2]+0.005*[#   6]+0.005*[#  10]+0.005*[#  14]+
    |psi|^2 = 0.026

 k =   0.0000000000  0.4156921938  0.0000000000
==== e(   1) =   -17.01652 eV ==== 
     psi = 0.147*[#   1]+0.147*[#   5]+0.147*[#   9]+0.147*[#  13]+0.098*[#   4]+
          +0.098*[#   8]+0.098*[#  12]+0.098*[#  16]+
    |psi|^2 = 0.979
==== e(   2) =   -16.92724 eV ==== 
     psi = 0.149*[#   1]+0.149*[#   5]+0.149*[#   9]+0.149*[#  13]+0.097*[#   4]+
          +0.097*[#   8]+0.097*[#  12]+0.097*[#  16]+
    |psi|^2 = 0.984
==== e(   3) =   -10.82989 eV ==== 
     psi = 0.176*[#   4]+0.176*[#   8]+0.176*[#  12]+0.176*[#  16]+0.071*[#   1]+
          +0.071*[#   5]+0.071*[#   9]+0.071*[#  13]+
    |psi|^2 = 0.988
==== e(   4) =   -10.77798 eV ==== 
     psi = 0.177*[#   4]+0.177*[#   8]+0.177*[#  12]+0.177*[#  16]+0.070*[#   1]+
          +0.070*[#   5]+0.070*[#   9]+0.070*[#  13]+
    |psi|^2 = 0.991
==== e(   5) =    -6.48200 eV ==== 
     psi = 0.249*[#  11]+0.249*[#  15]+0.249*[#   3]+0.249*[#   7]+
    |psi|^2 = 0.996
==== e(   6) =    -6.46451 eV ==== 
     psi = 0.249*[#   3]+0.249*[#   7]+0.249*[#  11]+0.249*[#  15]+
    |psi|^2 = 0.996
==== e(   7) =    -4.98730 eV ==== 
     psi = 0.248*[#   2]+0.248*[#   6]+0.248*[#  10]+0.248*[#  14]+
    |psi|^2 = 0.993
==== e(   8) =    -4.30855 eV ==== 
     psi = 0.249*[#   2]+0.249*[#   6]+0.249*[#  10]+0.249*[#  14]+
    |psi|^2 = 0.996
==== e(   9) =     3.41126 eV ==== 
     psi = 0.234*[#   2]+0.234*[#   6]+0.234*[#  10]+0.234*[#  14]+
    |psi|^2 = 0.936
==== e(  10) =     3.95119 eV ==== 
     psi = 0.237*[#   2]+0.237*[#   6]+0.237*[#  10]+0.237*[#  14]+
    |psi|^2 = 0.948
==== e(  11) =     6.86931 eV ==== 
     psi = 0.060*[#   1]+0.060*[#   5]+0.060*[#   9]+0.060*[#  13]+0.012*[#   4]+
          +0.012*[#   8]+0.012*[#  12]+0.012*[#  16]+
    |psi|^2 = 0.291
==== e(  12) =     7.15856 eV ==== 
     psi = 0.140*[#   9]+0.140*[#  13]+0.139*[#   1]+0.139*[#   5]+0.064*[#   4]+
          +0.064*[#   8]+0.064*[#  12]+0.064*[#  16]+
    |psi|^2 = 0.815

 k =   0.0000000000  0.4618802154  0.0000000000
==== e(   1) =   -16.33790 eV ==== 
     psi = 0.141*[#   1]+0.141*[#   5]+0.141*[#   9]+0.141*[#  13]+0.104*[#   4]+
          +0.104*[#   8]+0.104*[#  12]+0.104*[#  16]+
    |psi|^2 = 0.981
==== e(   2) =   -16.25255 eV ==== 
     psi = 0.143*[#   1]+0.143*[#   5]+0.143*[#   9]+0.143*[#  13]+0.104*[#   4]+
          +0.104*[#   8]+0.104*[#  12]+0.104*[#  16]+
    |psi|^2 = 0.986
==== e(   3) =   -11.83409 eV ==== 
     psi = 0.170*[#   4]+0.170*[#   8]+0.170*[#  12]+0.170*[#  16]+0.076*[#   1]+
          +0.076*[#   5]+0.076*[#   9]+0.076*[#  13]+
    |psi|^2 = 0.986
==== e(   4) =   -11.77675 eV ==== 
     psi = 0.171*[#   4]+0.171*[#   8]+0.171*[#  12]+0.171*[#  16]+0.076*[#   1]+
          +0.076*[#   5]+0.076*[#   9]+0.076*[#  13]+
    |psi|^2 = 0.989
==== e(   5) =    -6.70042 eV ==== 
     psi = 0.249*[#  11]+0.249*[#  15]+0.249*[#   3]+0.249*[#   7]+
    |psi|^2 = 0.996
==== e(   6) =    -6.68267 eV ==== 
     psi = 0.249*[#   3]+0.249*[#   7]+0.249*[#  11]+0.249*[#  15]+
    |psi|^2 = 0.996
==== e(   7) =    -4.28329 eV ==== 
     psi = 0.249*[#   2]+0.249*[#   6]+0.249*[#  10]+0.249*[#  14]+
    |psi|^2 = 0.996
==== e(   8) =    -3.63851 eV ==== 
     psi = 0.249*[#   2]+0.249*[#   6]+0.249*[#  10]+0.249*[#  14]+
    |psi|^2 = 0.997
==== e(   9) =     2.36253 eV ==== 
     psi = 0.235*[#   2]+0.235*[#   6]+0.235*[#  10]+0.235*[#  14]+
    |psi|^2 = 0.939
==== e(  10) =     2.96352 eV ==== 
     psi = 0.238*[#   2]+0.238*[#   6]+0.238*[#  10]+0.238*[#  14]+
    |psi|^2 = 0.951
==== e(  11) =     6.91602 eV ==== 
     psi = 0.154*[#   1]+0.154*[#   5]+0.154*[#   9]+0.154*[#  13]+0.056*[#   4]+
          +0.056*[#   8]+0.056*[#  12]+0.056*[#  16]+
    |psi|^2 = 0.841
==== e(  12) =     7.06667 eV ==== 
     psi = 0.157*[#   1]+0.157*[#   5]+0.157*[#   9]+0.157*[#  13]+0.063*[#   4]+
          +0.063*[#   8]+0.063*[#  12]+0.063*[#  16]+
    |psi|^2 = 0.882

 k =   0.0000000000  0.5080682369  0.0000000000
==== e(   1) =   -15.61492 eV ==== 
     psi = 0.139*[#   1]+0.139*[#   5]+0.139*[#   9]+0.139*[#  13]+0.107*[#   4]+
          +0.107*[#   8]+0.107*[#  12]+0.107*[#  16]+
    |psi|^2 = 0.984
==== e(   2) =   -15.53342 eV ==== 
     psi = 0.140*[#   1]+0.140*[#   5]+0.140*[#   9]+0.140*[#  13]+0.107*[#   4]+
          +0.107*[#   8]+0.107*[#  12]+0.107*[#  16]+
    |psi|^2 = 0.988
==== e(   3) =   -12.77808 eV ==== 
     psi = 0.168*[#   4]+0.168*[#   8]+0.168*[#  12]+0.168*[#  16]+0.078*[#   1]+
          +0.078*[#   5]+0.078*[#   9]+0.078*[#  13]+
    |psi|^2 = 0.983
==== e(   4) =   -12.71609 eV ==== 
     psi = 0.169*[#   4]+0.169*[#   8]+0.169*[#  12]+0.169*[#  16]+0.078*[#   1]+
          +0.078*[#   5]+0.078*[#   9]+0.078*[#  13]+
    |psi|^2 = 0.987
==== e(   5) =    -6.84848 eV ==== 
     psi = 0.249*[#  11]+0.249*[#  15]+0.249*[#   3]+0.249*[#   7]+
    |psi|^2 = 0.996
==== e(   6) =    -6.83054 eV ==== 
     psi = 0.249*[#   3]+0.249*[#   7]+0.249*[#  11]+0.249*[#  15]+
    |psi|^2 = 0.996
==== e(   7) =    -3.63064 eV ==== 
     psi = 0.249*[#   2]+0.249*[#   6]+0.249*[#  10]+0.249*[#  14]+
    |psi|^2 = 0.997
==== e(   8) =    -3.02653 eV ==== 
     psi = 0.249*[#   2]+0.249*[#   6]+0.249*[#  10]+0.249*[#  14]+
    |psi|^2 = 0.997
==== e(   9) =     1.47205 eV ==== 
     psi = 0.236*[#   2]+0.236*[#   6]+0.236*[#  10]+0.236*[#  14]+
    |psi|^2 = 0.942
==== e(  10) =     2.13164 eV ==== 
     psi = 0.238*[#   2]+0.238*[#   6]+0.238*[#  10]+0.238*[#  14]+
    |psi|^2 = 0.953
==== e(  11) =     6.85100 eV ==== 
     psi = 0.163*[#   1]+0.163*[#   5]+0.163*[#   9]+0.163*[#  13]+0.055*[#   4]+
          +0.055*[#   8]+0.055*[#  12]+0.055*[#  16]+
    |psi|^2 = 0.872
==== e(  12) =     6.99484 eV ==== 
     psi = 0.164*[#   1]+0.164*[#   5]+0.164*[#   9]+0.164*[#  13]+0.058*[#   4]+
          +0.058*[#   8]+0.058*[#  12]+0.058*[#  16]+
    |psi|^2 = 0.887

 k =   0.0000000000  0.5542562584  0.0000000000
==== e(   1) =   -14.93398 eV ==== 
     psi = 0.150*[#   1]+0.150*[#   5]+0.150*[#   9]+0.150*[#  13]+0.097*[#   4]+
          +0.097*[#   8]+0.097*[#  12]+0.097*[#  16]+
    |psi|^2 = 0.989
==== e(   2) =   -14.85487 eV ==== 
     psi = 0.152*[#   1]+0.152*[#   5]+0.152*[#   9]+0.152*[#  13]+0.096*[#   4]+
          +0.096*[#   8]+0.096*[#  12]+0.096*[#  16]+
    |psi|^2 = 0.992
==== e(   3) =   -13.57070 eV ==== 
     psi = 0.179*[#   4]+0.179*[#   8]+0.179*[#  12]+0.179*[#  16]+0.066*[#   1]+
          +0.066*[#   5]+0.066*[#   9]+0.066*[#  13]+
    |psi|^2 = 0.978
==== e(   4) =   -13.50592 eV ==== 
     psi = 0.179*[#   4]+0.179*[#   8]+0.179*[#  12]+0.179*[#  16]+0.066*[#   1]+
          +0.066*[#   5]+0.066*[#   9]+0.066*[#  13]+
    |psi|^2 = 0.983
==== e(   5) =    -6.92327 eV ==== 
     psi = 0.249*[#  11]+0.249*[#  15]+0.249*[#   3]+0.249*[#   7]+
    |psi|^2 = 0.996
==== e(   6) =    -6.90517 eV ==== 
     psi = 0.249*[#   3]+0.249*[#   7]+0.249*[#  11]+0.249*[#  15]+
    |psi|^2 = 0.996
==== e(   7) =    -3.19013 eV ==== 
     psi = 0.249*[#   2]+0.249*[#   6]+0.249*[#  10]+0.249*[#  14]+
    |psi|^2 = 0.998
==== e(   8) =    -2.62230 eV ==== 
     psi = 0.249*[#   2]+0.249*[#   6]+0.249*[#  10]+0.249*[#  14]+
    |psi|^2 = 0.998
==== e(   9) =     0.91022 eV ==== 
     psi = 0.236*[#   2]+0.236*[#   6]+0.236*[#  10]+0.236*[#  14]+
    |psi|^2 = 0.943
==== e(  10) =     1.61514 eV ==== 
     psi = 0.238*[#   2]+0.238*[#   6]+0.238*[#  10]+0.238*[#  14]+
    |psi|^2 = 0.953
==== e(  11) =     6.81461 eV ==== 
     psi = 0.167*[#   1]+0.167*[#   5]+0.167*[#   9]+0.167*[#  13]+0.053*[#   4]+
          +0.053*[#   8]+0.053*[#  12]+0.053*[#  16]+
    |psi|^2 = 0.879
==== e(  12) =     6.95764 eV ==== 
     psi = 0.167*[#   1]+0.167*[#   5]+0.167*[#   9]+0.167*[#  13]+0.055*[#   4]+
          +0.055*[#   8]+0.055*[#  12]+0.055*[#  16]+
    |psi|^2 = 0.888

 k =   0.0400000000  0.0692820323  0.0000000000
==== e(   1) =   -19.90691 eV ==== 
     psi = 0.235*[#   1]+0.235*[#   5]+0.235*[#   9]+0.235*[#  13]+0.007*[#   4]+
          +0.007*[#   8]+0.007*[#  12]+0.007*[#  16]+0.002*[#   3]+0.002*[#   7]+
          +0.002*[#  11]+0.002*[#  15]+
    |psi|^2 = 0.979
==== e(   2) =   -19.79914 eV ==== 
     psi = 0.237*[#   1]+0.237*[#   5]+0.237*[#   9]+0.237*[#  13]+0.007*[#   4]+
          +0.007*[#   8]+0.007*[#  12]+0.007*[#  16]+0.002*[#   3]+0.002*[#   7]+
          +0.002*[#  11]+0.002*[#  15]+
    |psi|^2 = 0.986
==== e(   3) =    -8.33985 eV ==== 
     psi = 0.237*[#   2]+0.237*[#   6]+0.237*[#  10]+0.237*[#  14]+
    |psi|^2 = 0.951
==== e(   4) =    -7.55508 eV ==== 
     psi = 0.241*[#   2]+0.241*[#   6]+0.241*[#  10]+0.241*[#  14]+
    |psi|^2 = 0.967
==== e(   5) =    -4.01521 eV ==== 
     psi = 0.181*[#  12]+0.181*[#  16]+0.180*[#   8]+0.180*[#   4]+0.063*[#   3]+
          +0.063*[#  11]+0.063*[#  15]+0.063*[#   7]+0.006*[#   1]+0.006*[#   5]+
          +0.006*[#   9]+0.006*[#  13]+
    |psi|^2 = 0.997
==== e(   6) =    -4.00077 eV ==== 
     psi = 0.181*[#   4]+0.181*[#   8]+0.180*[#  16]+0.180*[#  12]+0.063*[#   3]+
          +0.063*[#   7]+0.063*[#  11]+0.063*[#  15]+0.006*[#   1]+0.006*[#   5]+
          +0.006*[#   9]+0.006*[#  13]+
    |psi|^2 = 0.997
==== e(   7) =    -3.81329 eV ==== 
     psi = 0.185*[#  15]+0.185*[#  11]+0.184*[#   3]+0.184*[#   7]+0.065*[#  12]+
          +0.064*[#  16]+0.064*[#   4]+0.064*[#   8]+
    |psi|^2 = 0.997
==== e(   8) =    -3.80080 eV ==== 
     psi = 0.185*[#   7]+0.185*[#   3]+0.184*[#  11]+0.184*[#  15]+0.065*[#   4]+
          +0.065*[#   8]+0.064*[#  12]+0.065*[#  16]+
    |psi|^2 = 0.997
==== e(   9) =     3.04874 eV ==== 
     psi = 0.003*[#   4]+0.003*[#   8]+0.003*[#  12]+0.003*[#  16]+0.001*[#   1]+
          +0.001*[#   5]+0.001*[#   9]+0.001*[#  13]+
    |psi|^2 = 0.022
==== e(  10) =     3.44968 eV ==== 
     psi = 0.004*[#   2]+0.004*[#   6]+0.004*[#  10]+0.004*[#  14]+
    |psi|^2 = 0.023
==== e(  11) =     4.17223 eV ==== 
     psi = 
    |psi|^2 = 0.004
==== e(  12) =     5.37863 eV ==== 
     psi = 0.002*[#   2]+0.002*[#   6]+0.002*[#  10]+0.002*[#  14]+
    |psi|^2 = 0.008

 k =   0.0400000000  0.1154700538  0.0000000000
==== e(   1) =   -19.75586 eV ==== 
     psi = 0.224*[#   1]+0.224*[#   5]+0.224*[#   9]+0.224*[#  13]+0.019*[#   4]+
          +0.019*[#   8]+0.019*[#  12]+0.019*[#  16]+0.002*[#   3]+0.002*[#   7]+
          +0.002*[#  11]+0.002*[#  15]+
    |psi|^2 = 0.979
==== e(   2) =   -19.64911 eV ==== 
     psi = 0.226*[#   1]+0.226*[#   5]+0.226*[#   9]+0.226*[#  13]+0.018*[#   4]+
          +0.018*[#   8]+0.018*[#  12]+0.018*[#  16]+0.002*[#   3]+0.002*[#   7]+
          +0.002*[#  11]+0.002*[#  15]+
    |psi|^2 = 0.985
==== e(   3) =    -8.15821 eV ==== 
     psi = 0.238*[#   2]+0.238*[#   6]+0.238*[#  10]+0.238*[#  14]+
    |psi|^2 = 0.955
==== e(   4) =    -7.37792 eV ==== 
     psi = 0.242*[#   2]+0.242*[#   6]+0.242*[#  10]+0.242*[#  14]+
    |psi|^2 = 0.970
==== e(   5) =    -4.55852 eV ==== 
     psi = 0.214*[#  12]+0.214*[#  16]+0.214*[#   4]+0.214*[#   8]+0.023*[#   3]+
          +0.023*[#   7]+0.023*[#  11]+0.023*[#  15]+0.013*[#   1]+0.013*[#   5]+
          +0.013*[#   9]+0.013*[#  13]+
    |psi|^2 = 0.997
==== e(   6) =    -4.54092 eV ==== 
     psi = 0.214*[#   4]+0.214*[#   8]+0.214*[#  12]+0.214*[#  16]+0.023*[#   3]+
          +0.023*[#   7]+0.023*[#  11]+0.023*[#  15]+0.013*[#   1]+0.013*[#   5]+
          +0.013*[#   9]+0.013*[#  13]+
    |psi|^2 = 0.997
==== e(   7) =    -4.11642 eV ==== 
     psi = 0.225*[#  11]+0.225*[#  15]+0.224*[#   3]+0.224*[#   7]+0.024*[#   4]+
          +0.024*[#   8]+0.024*[#  12]+0.024*[#  16]+
    |psi|^2 = 0.997
==== e(   8) =    -4.10299 eV ==== 
     psi = 0.225*[#   3]+0.225*[#   7]+0.224*[#  11]+0.224*[#  15]+0.024*[#   4]+
          +0.024*[#   8]+0.024*[#  12]+0.024*[#  16]+
    |psi|^2 = 0.997
==== e(   9) =     3.25202 eV ==== 
     psi = 0.006*[#   4]+0.006*[#   8]+0.006*[#  12]+0.006*[#  16]+
    |psi|^2 = 0.032
==== e(  10) =     3.65535 eV ==== 
     psi = 0.004*[#   2]+0.004*[#   6]+0.004*[#  10]+0.004*[#  14]+0.002*[#   4]+
          +0.002*[#   8]+0.002*[#  12]+0.002*[#  16]+
    |psi|^2 = 0.024
==== e(  11) =     4.38002 eV ==== 
     psi = 0.001*[#   4]+0.001*[#   8]+0.001*[#  12]+0.001*[#  16]+
    |psi|^2 = 0.006
==== e(  12) =     5.58496 eV ==== 
     psi = 0.001*[#   2]+0.001*[#   6]+0.001*[#  10]+0.001*[#  14]+
    |psi|^2 = 0.008

 k =   0.0400000000  0.1616580754  0.0000000000
==== e(   1) =   -19.52978 eV ==== 
     psi = 0.210*[#   1]+0.210*[#   5]+0.210*[#   9]+0.210*[#  13]+0.032*[#   4]+
          +0.032*[#   8]+0.032*[#  12]+0.032*[#  16]+0.002*[#   3]+0.002*[#   7]+
          +0.002*[#  11]+0.002*[#  15]+
    |psi|^2 = 0.978
==== e(   2) =   -19.42456 eV ==== 
     psi = 0.213*[#   1]+0.213*[#   5]+0.213*[#   9]+0.213*[#  13]+0.031*[#   4]+
          +0.031*[#   8]+0.031*[#  12]+0.031*[#  16]+0.002*[#   3]+0.002*[#   7]+
          +0.002*[#  11]+0.002*[#  15]+
    |psi|^2 = 0.985
==== e(   3) =    -7.88712 eV ==== 
     psi = 0.240*[#   2]+0.240*[#   6]+0.240*[#  10]+0.240*[#  14]+
    |psi|^2 = 0.960
==== e(   4) =    -7.11366 eV ==== 
     psi = 0.243*[#   2]+0.243*[#   6]+0.243*[#  10]+0.243*[#  14]+
    |psi|^2 = 0.974
==== e(   5) =    -5.30307 eV ==== 
     psi = 0.218*[#  12]+0.218*[#  16]+0.218*[#   4]+0.218*[#   8]+0.022*[#   1]+
          +0.022*[#   5]+0.022*[#   9]+0.022*[#  13]+0.009*[#   3]+0.009*[#   7]+
          +0.009*[#  11]+0.009*[#  15]+
    |psi|^2 = 0.996
==== e(   6) =    -5.28109 eV ==== 
     psi = 0.219*[#   4]+0.219*[#   8]+0.218*[#  12]+0.218*[#  16]+0.022*[#   1]+
          +0.021*[#   5]+0.021*[#   9]+0.021*[#  13]+0.009*[#   3]+0.009*[#   7]+
          +0.009*[#  11]+0.009*[#  15]+
    |psi|^2 = 0.997
==== e(   7) =    -4.50737 eV ==== 
     psi = 0.238*[#  11]+0.238*[#  15]+0.238*[#   3]+0.238*[#   7]+0.010*[#   4]+
          +0.010*[#   8]+0.010*[#  12]+0.010*[#  16]+0.001*[#   1]+0.001*[#   5]+
          +0.001*[#   9]+0.001*[#  13]+
    |psi|^2 = 0.996
==== e(   8) =    -4.49284 eV ==== 
     psi = 0.238*[#   3]+0.238*[#   7]+0.238*[#  11]+0.238*[#  15]+0.010*[#   4]+
          +0.010*[#   8]+0.010*[#  12]+0.010*[#  16]+0.001*[#   1]+0.001*[#   5]+
          +0.001*[#   9]+0.001*[#  13]+
    |psi|^2 = 0.997
==== e(   9) =     3.55686 eV ==== 
     psi = 0.008*[#   4]+0.008*[#   8]+0.008*[#  12]+0.008*[#  16]+
    |psi|^2 = 0.039
==== e(  10) =     3.96358 eV ==== 
     psi = 0.003*[#   2]+0.003*[#   6]+0.003*[#  10]+0.003*[#  14]+0.003*[#   4]+
          +0.003*[#   8]+0.003*[#  12]+0.003*[#  16]+
    |psi|^2 = 0.025
==== e(  11) =     4.69171 eV ==== 
     psi = 0.002*[#   4]+0.002*[#   8]+0.002*[#  12]+0.002*[#  16]+
    |psi|^2 = 0.007
==== e(  12) =     5.89423 eV ==== 
     psi = 0.001*[#   2]+0.001*[#   6]+0.001*[#  10]+0.001*[#  14]+
    |psi|^2 = 0.008

 k =   0.0400000000  0.2078460969  0.0000000000
==== e(   1) =   -19.22926 eV ==== 
     psi = 0.196*[#   1]+0.196*[#   5]+0.196*[#   9]+0.196*[#  13]+0.047*[#   4]+
          +0.047*[#   8]+0.047*[#  12]+0.047*[#  16]+0.002*[#   3]+0.002*[#   7]+
          +0.002*[#  11]+0.002*[#  15]+
    |psi|^2 = 0.978
==== e(   2) =   -19.12604 eV ==== 
     psi = 0.199*[#   1]+0.199*[#   5]+0.199*[#   9]+0.199*[#  13]+0.045*[#   4]+
          +0.045*[#   8]+0.045*[#  12]+0.045*[#  16]+0.002*[#   3]+0.002*[#   7]+
          +0.002*[#  11]+0.002*[#  15]+
    |psi|^2 = 0.984
==== e(   3) =    -7.52831 eV ==== 
     psi = 0.241*[#   2]+0.241*[#   6]+0.241*[#  10]+0.241*[#  14]+
    |psi|^2 = 0.967
==== e(   4) =    -6.76434 eV ==== 
     psi = 0.245*[#   2]+0.245*[#   6]+0.245*[#  10]+0.245*[#  14]+
    |psi|^2 = 0.979
==== e(   5) =    -6.19172 eV ==== 
     psi = 0.213*[#  12]+0.213*[#  16]+0.213*[#   4]+0.213*[#   8]+0.031*[#   1]+
          +0.031*[#   5]+0.032*[#   9]+0.031*[#  13]+0.004*[#   3]+0.004*[#   7]+
          +0.004*[#  11]+0.004*[#  15]+
    |psi|^2 = 0.994
==== e(   6) =    -6.16466 eV ==== 
     psi = 0.214*[#   4]+0.214*[#   8]+0.214*[#  12]+0.214*[#  16]+0.031*[#   1]+
          +0.031*[#   5]+0.031*[#   9]+0.031*[#  13]+0.004*[#   3]+0.004*[#   7]+
          +0.004*[#  11]+0.004*[#  15]+
    |psi|^2 = 0.996
==== e(   7) =    -4.93862 eV ==== 
     psi = 0.243*[#  11]+0.243*[#  15]+0.243*[#   3]+0.243*[#   7]+0.005*[#   4]+
          +0.005*[#   8]+0.005*[#  12]+0.005*[#  16]+0.002*[#   1]+0.002*[#   5]+
          +0.002*[#   9]+0.002*[#  13]+
    |psi|^2 = 0.996
==== e(   8) =    -4.92299 eV ==== 
     psi = 0.243*[#   3]+0.243*[#   7]+0.243*[#  11]+0.243*[#  15]+0.005*[#   4]+
          +0.005*[#   8]+0.005*[#  12]+0.005*[#  16]+0.001*[#   1]+0.001*[#   5]+
          +0.001*[#   9]+0.001*[#  13]+
    |psi|^2 = 0.997
==== e(   9) =     3.96290 eV ==== 
     psi = 0.010*[#   4]+0.010*[#   8]+0.010*[#  12]+0.010*[#  16]+
    |psi|^2 = 0.043
==== e(  10) =     4.37377 eV ==== 
     psi = 0.003*[#   4]+0.003*[#   8]+0.003*[#  12]+0.003*[#  16]+0.003*[#   2]+
          +0.003*[#   6]+0.003*[#  10]+0.003*[#  14]+
    |psi|^2 = 0.024
==== e(  11) =     5.10711 eV ==== 
     psi = 0.002*[#   4]+0.002*[#   8]+0.002*[#  12]+0.002*[#  16]+
    |psi|^2 = 0.007
==== e(  12) =     6.30561 eV ==== 
     psi = 
    |psi|^2 = 0.007

 k =   0.0400000000  0.2540341184  0.0000000000
==== e(   1) =   -18.85520 eV ==== 
     psi = 0.182*[#   1]+0.182*[#   5]+0.183*[#   9]+0.183*[#  13]+0.060*[#   4]+
          +0.060*[#   8]+0.060*[#  12]+0.060*[#  16]+0.002*[#   3]+0.002*[#   7]+
          +0.002*[#  11]+0.002*[#  15]+
    |psi|^2 = 0.977
==== e(   2) =   -18.75442 eV ==== 
     psi = 0.185*[#   1]+0.185*[#   5]+0.185*[#   9]+0.185*[#  13]+0.059*[#   4]+
          +0.059*[#   8]+0.059*[#  12]+0.059*[#  16]+0.001*[#   3]+0.001*[#   7]+
          +0.001*[#  11]+0.001*[#  15]+
    |psi|^2 = 0.984
==== e(   3) =    -7.17309 eV ==== 
     psi = 0.204*[#  12]+0.204*[#  16]+0.204*[#   4]+0.203*[#   8]+0.041*[#   1]+
          +0.041*[#   5]+0.041*[#   9]+0.041*[#  13]+0.002*[#   3]+0.002*[#   7]+
          +0.002*[#  11]+0.002*[#  15]+0.002*[#   2]+0.002*[#   6]+0.002*[#  10]+
          +0.002*[#  14]+
    |psi|^2 = 0.993
==== e(   4) =    -7.14018 eV ==== 
     psi = 0.206*[#   4]+0.206*[#   8]+0.206*[#  12]+0.206*[#  16]+0.041*[#   1]+
          +0.041*[#   5]+0.041*[#   9]+0.041*[#  13]+0.002*[#   3]+0.002*[#   7]+
          +0.002*[#  11]+0.002*[#  15]+
    |psi|^2 = 0.995
==== e(   5) =    -7.08402 eV ==== 
     psi = 0.242*[#   2]+0.242*[#   6]+0.242*[#  10]+0.242*[#  14]+0.001*[#   4]+
          +0.001*[#   8]+0.001*[#  12]+0.001*[#  16]+
    |psi|^2 = 0.974
==== e(   6) =    -6.33284 eV ==== 
     psi = 0.246*[#   2]+0.246*[#   6]+0.246*[#  10]+0.246*[#  14]+
    |psi|^2 = 0.984
==== e(   7) =    -5.37330 eV ==== 
     psi = 0.245*[#  11]+0.245*[#  15]+0.245*[#   3]+0.245*[#   7]+0.002*[#   4]+
          +0.002*[#   8]+0.002*[#  12]+0.002*[#  16]+0.002*[#   1]+0.002*[#   5]+
          +0.002*[#   9]+0.002*[#  13]+
    |psi|^2 = 0.996
==== e(   8) =    -5.35674 eV ==== 
     psi = 0.245*[#   3]+0.245*[#   7]+0.245*[#  11]+0.245*[#  15]+0.003*[#   4]+
          +0.003*[#   8]+0.003*[#  12]+0.003*[#  16]+0.002*[#   1]+0.002*[#   5]+
          +0.002*[#   9]+0.002*[#  13]+
    |psi|^2 = 0.997
==== e(   9) =     4.46945 eV ==== 
     psi = 0.009*[#   4]+0.009*[#   8]+0.009*[#  12]+0.009*[#  16]+
    |psi|^2 = 0.041
==== e(  10) =     4.88436 eV ==== 
     psi = 0.003*[#   4]+0.003*[#   8]+0.003*[#  12]+0.003*[#  16]+0.002*[#   2]+
          +0.002*[#   6]+0.002*[#  10]+0.002*[#  14]+
    |psi|^2 = 0.022
==== e(  11) =     5.62568 eV ==== 
     psi = 0.001*[#   4]+0.001*[#   8]+0.001*[#  12]+0.001*[#  16]+
    |psi|^2 = 0.006
==== e(  12) =     6.81420 eV ==== 
     psi = 0.002*[#   2]+0.002*[#   6]+0.002*[#  10]+0.002*[#  14]+
    |psi|^2 = 0.011

 k =   0.0400000000  0.3002221400  0.0000000000
==== e(   1) =   -18.40877 eV ==== 
     psi = 0.170*[#   1]+0.170*[#   5]+0.170*[#   9]+0.170*[#  13]+0.072*[#   4]+
          +0.072*[#   8]+0.073*[#  12]+0.073*[#  16]+0.001*[#   3]+0.001*[#   7]+
          +0.001*[#  11]+0.001*[#  15]+
    |psi|^2 = 0.977
==== e(   2) =   -18.31089 eV ==== 
     psi = 0.173*[#   1]+0.173*[#   5]+0.173*[#   9]+0.173*[#  13]+0.072*[#   4]+
          +0.072*[#   8]+0.071*[#  12]+0.071*[#  16]+0.001*[#   3]+0.001*[#   7]+
          +0.001*[#  11]+0.001*[#  15]+
    |psi|^2 = 0.984
==== e(   3) =    -8.20413 eV ==== 
     psi = 0.196*[#  12]+0.196*[#  16]+0.196*[#   4]+0.196*[#   8]+0.051*[#   1]+
          +0.051*[#   5]+0.051*[#   9]+0.051*[#  13]+0.001*[#   3]+0.001*[#   7]+
          +0.001*[#  11]+0.001*[#  15]+
    |psi|^2 = 0.991
==== e(   4) =    -8.16614 eV ==== 
     psi = 0.197*[#   4]+0.197*[#   8]+0.197*[#  12]+0.197*[#  16]+0.050*[#   1]+
          +0.050*[#   5]+0.050*[#   9]+0.050*[#  13]+0.001*[#   3]+0.001*[#   7]+
          +0.001*[#  11]+0.001*[#  15]+
    |psi|^2 = 0.994
==== e(   5) =    -6.56009 eV ==== 
     psi = 0.245*[#   2]+0.245*[#   6]+0.245*[#  10]+0.245*[#  14]+
    |psi|^2 = 0.981
==== e(   6) =    -5.82420 eV ==== 
     psi = 0.247*[#   2]+0.247*[#   6]+0.247*[#  10]+0.247*[#  14]+
    |psi|^2 = 0.989
==== e(   7) =    -5.78508 eV ==== 
     psi = 0.246*[#  11]+0.246*[#  15]+0.246*[#   3]+0.246*[#   7]+0.002*[#   1]+
          +0.002*[#   5]+0.002*[#   9]+0.002*[#  13]+0.001*[#   4]+0.001*[#   8]+
          +0.001*[#  12]+0.001*[#  16]+
    |psi|^2 = 0.996
==== e(   8) =    -5.76760 eV ==== 
     psi = 0.246*[#   3]+0.246*[#   7]+0.245*[#  11]+0.245*[#  15]+0.002*[#   1]+
          +0.002*[#   5]+0.002*[#   9]+0.002*[#  13]+0.002*[#   4]+0.002*[#   8]+
          +0.002*[#  12]+0.002*[#  16]+
    |psi|^2 = 0.997
==== e(   9) =     5.07504 eV ==== 
     psi = 0.008*[#   4]+0.008*[#   8]+0.008*[#  12]+0.008*[#  16]+
    |psi|^2 = 0.035
==== e(  10) =     5.48649 eV ==== 
     psi = 0.004*[#   2]+0.004*[#   6]+0.004*[#  10]+0.004*[#  14]+0.003*[#   4]+
          +0.003*[#   8]+0.003*[#  12]+0.003*[#  16]+
    |psi|^2 = 0.028
==== e(  11) =     6.17926 eV ==== 
     psi = 0.190*[#   2]+0.190*[#  14]+0.190*[#   6]+0.190*[#  10]+
    |psi|^2 = 0.762
==== e(  12) =     6.26136 eV ==== 
     psi = 0.041*[#   2]+0.041*[#   6]+0.041*[#  10]+0.041*[#  14]+
    |psi|^2 = 0.168

 k =   0.0400000000  0.3464101615  0.0000000000
==== e(   1) =   -17.89171 eV ==== 
     psi = 0.160*[#   1]+0.160*[#   5]+0.160*[#   9]+0.160*[#  13]+0.083*[#   4]+
          +0.083*[#   8]+0.083*[#  12]+0.083*[#  16]+0.001*[#   3]+0.001*[#   7]+
          +0.001*[#  11]+0.001*[#  15]+
    |psi|^2 = 0.977
==== e(   2) =   -17.79711 eV ==== 
     psi = 0.162*[#   1]+0.162*[#   5]+0.162*[#   9]+0.162*[#  13]+0.083*[#   4]+
          +0.083*[#   8]+0.083*[#  12]+0.083*[#  16]+0.001*[#   3]+0.001*[#   7]+
          +0.001*[#  11]+0.001*[#  15]+
    |psi|^2 = 0.984
==== e(   3) =    -9.25448 eV ==== 
     psi = 0.187*[#  12]+0.187*[#  16]+0.187*[#   4]+0.187*[#   8]+0.059*[#   1]+
          +0.059*[#   5]+0.059*[#   9]+0.059*[#  13]+
    |psi|^2 = 0.990
==== e(   4) =    -9.21095 eV ==== 
     psi = 0.188*[#   4]+0.188*[#   8]+0.188*[#  12]+0.188*[#  16]+0.059*[#   1]+
          +0.059*[#   5]+0.059*[#   9]+0.059*[#  13]+
    |psi|^2 = 0.993
==== e(   5) =    -6.15542 eV ==== 
     psi = 0.246*[#  11]+0.246*[#  15]+0.246*[#   3]+0.246*[#   7]+0.002*[#   1]+
          +0.002*[#   5]+0.002*[#   9]+0.002*[#  13]+
    |psi|^2 = 0.996
==== e(   6) =    -6.13735 eV ==== 
     psi = 0.246*[#   3]+0.246*[#   7]+0.246*[#  11]+0.246*[#  15]+0.002*[#   1]+
          +0.002*[#   5]+0.002*[#   9]+0.002*[#  13]+0.001*[#   4]+0.001*[#   8]+
          +0.001*[#  12]+0.001*[#  16]+
    |psi|^2 = 0.997
==== e(   7) =    -5.96196 eV ==== 
     psi = 0.247*[#   2]+0.247*[#   6]+0.247*[#  10]+0.247*[#  14]+
    |psi|^2 = 0.987
==== e(   8) =    -5.24549 eV ==== 
     psi = 0.248*[#   2]+0.248*[#   6]+0.248*[#  10]+0.248*[#  14]+
    |psi|^2 = 0.992
==== e(   9) =     5.07357 eV ==== 
     psi = 0.233*[#   2]+0.233*[#   6]+0.233*[#  10]+0.233*[#  14]+
    |psi|^2 = 0.933
==== e(  10) =     5.49595 eV ==== 
     psi = 0.225*[#   2]+0.225*[#   6]+0.225*[#  10]+0.225*[#  14]+
    |psi|^2 = 0.902
==== e(  11) =     5.77947 eV ==== 
     psi = 0.005*[#   4]+0.005*[#   8]+0.005*[#  12]+0.005*[#  16]+
    |psi|^2 = 0.026
==== e(  12) =     6.25632 eV ==== 
     psi = 0.014*[#   2]+0.015*[#   6]+0.015*[#  10]+0.014*[#  14]+0.002*[#   4]+
          +0.002*[#   8]+0.002*[#  12]+0.002*[#  16]+
    |psi|^2 = 0.065

 k =   0.0400000000  0.3925981830  0.0000000000
==== e(   1) =   -17.30652 eV ==== 
     psi = 0.150*[#   1]+0.150*[#   5]+0.150*[#   9]+0.150*[#  13]+0.093*[#   4]+
          +0.093*[#   8]+0.093*[#  12]+0.093*[#  16]+0.001*[#   3]+0.001*[#   7]+
          +0.001*[#  11]+0.001*[#  15]+
    |psi|^2 = 0.978
==== e(   2) =   -17.21554 eV ==== 
     psi = 0.153*[#   1]+0.153*[#   5]+0.153*[#   9]+0.153*[#  13]+0.092*[#   4]+
          +0.092*[#   8]+0.092*[#  12]+0.092*[#  16]+0.001*[#   3]+0.001*[#   7]+
          +0.001*[#  11]+0.001*[#  15]+
    |psi|^2 = 0.984
==== e(   3) =   -10.29959 eV ==== 
     psi = 0.179*[#   4]+0.179*[#   8]+0.180*[#  12]+0.180*[#  16]+0.067*[#   1]+
          +0.067*[#   5]+0.067*[#   9]+0.067*[#  13]+
    |psi|^2 = 0.989
==== e(   4) =   -10.25052 eV ==== 
     psi = 0.181*[#   4]+0.181*[#   8]+0.180*[#  12]+0.180*[#  16]+0.067*[#   1]+
          +0.067*[#   5]+0.067*[#   9]+0.067*[#  13]+
    |psi|^2 = 0.991
==== e(   5) =    -6.47146 eV ==== 
     psi = 0.247*[#  11]+0.247*[#  15]+0.246*[#   3]+0.246*[#   7]+0.002*[#   1]+
          +0.002*[#   5]+0.002*[#   9]+0.002*[#  13]+
    |psi|^2 = 0.996
==== e(   6) =    -6.45292 eV ==== 
     psi = 0.247*[#   3]+0.247*[#   7]+0.246*[#  11]+0.246*[#  15]+0.002*[#   1]+
          +0.002*[#   5]+0.002*[#   9]+0.002*[#  13]+
    |psi|^2 = 0.996
==== e(   7) =    -5.30203 eV ==== 
     psi = 0.248*[#   2]+0.248*[#   6]+0.248*[#  10]+0.248*[#  14]+
    |psi|^2 = 0.992
==== e(   8) =    -4.60981 eV ==== 
     psi = 0.249*[#   2]+0.249*[#   6]+0.249*[#  10]+0.249*[#  14]+
    |psi|^2 = 0.995
==== e(   9) =     3.94822 eV ==== 
     psi = 0.234*[#   2]+0.234*[#   6]+0.234*[#  10]+0.234*[#  14]+
    |psi|^2 = 0.937
==== e(  10) =     4.45099 eV ==== 
     psi = 0.237*[#   2]+0.237*[#   6]+0.237*[#  10]+0.237*[#  14]+
    |psi|^2 = 0.947
==== e(  11) =     6.56609 eV ==== 
     psi = 0.005*[#   1]+0.005*[#   5]+0.005*[#   9]+0.005*[#  13]+
    |psi|^2 = 0.024
==== e(  12) =     7.03899 eV ==== 
     psi = 0.004*[#   1]+0.004*[#   5]+0.004*[#   9]+0.004*[#  13]+0.003*[#   2]+
          +0.003*[#   6]+0.003*[#  10]+0.003*[#  14]+
    |psi|^2 = 0.028

 k =   0.0400000000  0.4387862046  0.0000000000
==== e(   1) =   -16.65751 eV ==== 
     psi = 0.143*[#   1]+0.143*[#   5]+0.143*[#   9]+0.143*[#  13]+0.101*[#   4]+
          +0.101*[#   8]+0.101*[#  12]+0.101*[#  16]+
    |psi|^2 = 0.979
==== e(   2) =   -16.57036 eV ==== 
     psi = 0.145*[#   1]+0.145*[#   5]+0.145*[#   9]+0.145*[#  13]+0.100*[#   4]+
          +0.100*[#   8]+0.100*[#  12]+0.100*[#  16]+
    |psi|^2 = 0.985
==== e(   3) =   -11.31988 eV ==== 
     psi = 0.173*[#   4]+0.173*[#   8]+0.173*[#  12]+0.173*[#  16]+0.074*[#   1]+
          +0.074*[#   5]+0.074*[#   9]+0.074*[#  13]+
    |psi|^2 = 0.987
==== e(   4) =   -11.26532 eV ==== 
     psi = 0.174*[#   4]+0.174*[#   8]+0.174*[#  12]+0.174*[#  16]+0.073*[#   1]+
          +0.073*[#   5]+0.073*[#   9]+0.073*[#  13]+
    |psi|^2 = 0.990
==== e(   5) =    -6.72474 eV ==== 
     psi = 0.247*[#  11]+0.247*[#  15]+0.246*[#   3]+0.246*[#   7]+0.002*[#   1]+
          +0.002*[#   5]+0.002*[#   9]+0.002*[#  13]+
    |psi|^2 = 0.996
==== e(   6) =    -6.70586 eV ==== 
     psi = 0.247*[#   3]+0.247*[#   7]+0.246*[#  11]+0.246*[#  15]+0.002*[#   1]+
          +0.002*[#   5]+0.002*[#   9]+0.002*[#  13]+
    |psi|^2 = 0.996
==== e(   7) =    -4.60255 eV ==== 
     psi = 0.249*[#   2]+0.249*[#   6]+0.249*[#  10]+0.249*[#  14]+
    |psi|^2 = 0.995
==== e(   8) =    -3.94069 eV ==== 
     psi = 0.249*[#   2]+0.249*[#   6]+0.249*[#  10]+0.249*[#  14]+
    |psi|^2 = 0.996
==== e(   9) =     2.86260 eV ==== 
     psi = 0.235*[#   2]+0.235*[#   6]+0.235*[#  10]+0.235*[#  14]+
    |psi|^2 = 0.939
==== e(  10) =     3.42736 eV ==== 
     psi = 0.238*[#   2]+0.238*[#   6]+0.238*[#  10]+0.238*[#  14]+
    |psi|^2 = 0.951
==== e(  11) =     7.10141 eV ==== 
     psi = 0.131*[#   1]+0.131*[#   5]+0.131*[#   9]+0.131*[#  13]+0.046*[#   4]+
          +0.046*[#   8]+0.046*[#  12]+0.046*[#  16]+0.002*[#   3]+0.002*[#   7]+
          +0.002*[#  11]+0.002*[#  15]+
    |psi|^2 = 0.715
==== e(  12) =     7.28303 eV ==== 
     psi = 0.149*[#   1]+0.149*[#   5]+0.149*[#   9]+0.149*[#  13]+0.066*[#   4]+
          +0.066*[#   8]+0.066*[#  12]+0.066*[#  16]+0.002*[#   3]+0.002*[#   7]+
          +0.002*[#  11]+0.002*[#  15]+
    |psi|^2 = 0.867

 k =   0.0400000000  0.4849742261  0.0000000000
==== e(   1) =   -15.95391 eV ==== 
     psi = 0.139*[#   1]+0.138*[#   5]+0.139*[#   9]+0.139*[#  13]+0.106*[#   4]+
          +0.106*[#   8]+0.106*[#  12]+0.106*[#  16]+
    |psi|^2 = 0.982
==== e(   2) =   -15.87071 eV ==== 
     psi = 0.140*[#   1]+0.140*[#   5]+0.140*[#   9]+0.140*[#  13]+0.106*[#   4]+
          +0.105*[#   8]+0.105*[#  12]+0.105*[#  16]+
    |psi|^2 = 0.987
==== e(   3) =   -12.29531 eV ==== 
     psi = 0.168*[#   4]+0.168*[#   8]+0.168*[#  12]+0.168*[#  16]+0.078*[#   1]+
          +0.078*[#   5]+0.078*[#   9]+0.078*[#  13]+
    |psi|^2 = 0.985
==== e(   4) =   -12.23566 eV ==== 
     psi = 0.169*[#   4]+0.169*[#   8]+0.169*[#  12]+0.169*[#  16]+0.078*[#   1]+
          +0.078*[#   5]+0.078*[#   9]+0.078*[#  13]+
    |psi|^2 = 0.988
==== e(   5) =    -6.90932 eV ==== 
     psi = 0.247*[#  11]+0.247*[#  15]+0.246*[#   3]+0.246*[#   7]+0.002*[#   1]+
          +0.002*[#   5]+0.002*[#   9]+0.002*[#  13]+
    |psi|^2 = 0.995
==== e(   6) =    -6.89019 eV ==== 
     psi = 0.247*[#   3]+0.247*[#   7]+0.246*[#  11]+0.246*[#  15]+0.002*[#   1]+
          +0.002*[#   5]+0.002*[#   9]+0.002*[#  13]+
    |psi|^2 = 0.996
==== e(   7) =    -3.91071 eV ==== 
     psi = 0.249*[#   2]+0.249*[#   6]+0.249*[#  10]+0.249*[#  14]+
    |psi|^2 = 0.996
==== e(   8) =    -3.28633 eV ==== 
     psi = 0.249*[#   2]+0.249*[#   6]+0.249*[#  10]+0.249*[#  14]+
    |psi|^2 = 0.997
==== e(   9) =     1.88269 eV ==== 
     psi = 0.236*[#   2]+0.236*[#   6]+0.236*[#  10]+0.236*[#  14]+
    |psi|^2 = 0.942
==== e(  10) =     2.50714 eV ==== 
     psi = 0.238*[#   2]+0.238*[#   6]+0.238*[#  10]+0.238*[#  14]+
    |psi|^2 = 0.953
==== e(  11) =     7.04929 eV ==== 
     psi = 0.157*[#   1]+0.157*[#   5]+0.157*[#   9]+0.157*[#  13]+0.056*[#   4]+
          +0.056*[#   8]+0.056*[#  12]+0.056*[#  16]+0.002*[#   3]+0.002*[#   7]+
          +0.002*[#  11]+0.002*[#  15]+
    |psi|^2 = 0.858
==== e(  12) =     7.19768 eV ==== 
     psi = 0.158*[#   1]+0.158*[#   5]+0.158*[#   9]+0.158*[#  13]+0.060*[#   4]+
          +0.060*[#   8]+0.060*[#  12]+0.060*[#  16]+0.002*[#   3]+0.002*[#   7]+
          +0.002*[#  11]+0.002*[#  15]+
    |psi|^2 = 0.882

 k =   0.0400000000  0.5311622477  0.0000000000
==== e(   1) =   -15.22904 eV ==== 
     psi = 0.141*[#   1]+0.141*[#   5]+0.141*[#   9]+0.141*[#  13]+0.104*[#   4]+
          +0.104*[#   8]+0.104*[#  12]+0.104*[#  16]+
    |psi|^2 = 0.986
==== e(   2) =   -15.14926 eV ==== 
     psi = 0.142*[#   1]+0.142*[#   5]+0.142*[#   9]+0.142*[#  13]+0.104*[#   4]+
          +0.104*[#   8]+0.104*[#  12]+0.104*[#  16]+
    |psi|^2 = 0.989
==== e(   3) =   -13.18571 eV ==== 
     psi = 0.170*[#   4]+0.170*[#   8]+0.170*[#  12]+0.170*[#  16]+0.075*[#   1]+
          +0.075*[#   5]+0.075*[#   9]+0.075*[#  13]+
    |psi|^2 = 0.981
==== e(   4) =   -13.12202 eV ==== 
     psi = 0.171*[#   4]+0.171*[#   8]+0.171*[#  12]+0.171*[#  16]+0.075*[#   1]+
          +0.075*[#   5]+0.075*[#   9]+0.075*[#  13]+
    |psi|^2 = 0.985
==== e(   5) =    -7.02142 eV ==== 
     psi = 0.247*[#  11]+0.247*[#  15]+0.246*[#   3]+0.246*[#   7]+0.002*[#   1]+
          +0.002*[#   5]+0.002*[#   9]+0.002*[#  13]+
    |psi|^2 = 0.995
==== e(   6) =    -7.00211 eV ==== 
     psi = 0.247*[#   3]+0.247*[#   7]+0.246*[#  11]+0.246*[#  15]+0.002*[#   1]+
          +0.002*[#   5]+0.002*[#   9]+0.002*[#  13]+
    |psi|^2 = 0.996
==== e(   7) =    -3.33522 eV ==== 
     psi = 0.249*[#   2]+0.249*[#   6]+0.249*[#  10]+0.249*[#  14]+
    |psi|^2 = 0.997
==== e(   8) =    -2.75203 eV ==== 
     psi = 0.249*[#   2]+0.249*[#   6]+0.249*[#  10]+0.249*[#  14]+
    |psi|^2 = 0.998
==== e(   9) =     1.12961 eV ==== 
     psi = 0.236*[#   2]+0.236*[#   6]+0.236*[#  10]+0.236*[#  14]+
    |psi|^2 = 0.944
==== e(  10) =     1.80867 eV ==== 
     psi = 0.239*[#   2]+0.239*[#   6]+0.239*[#  10]+0.239*[#  14]+
    |psi|^2 = 0.954
==== e(  11) =     6.99726 eV ==== 
     psi = 0.163*[#   1]+0.163*[#   5]+0.163*[#   9]+0.163*[#  13]+0.054*[#   4]+
          +0.054*[#   8]+0.054*[#  12]+0.054*[#  16]+0.002*[#   3]+0.002*[#   7]+
          +0.002*[#  11]+0.002*[#  15]+
    |psi|^2 = 0.874
==== e(  12) =     7.14273 eV ==== 
     psi = 0.163*[#   1]+0.163*[#   5]+0.163*[#   9]+0.163*[#  13]+0.056*[#   4]+
          +0.056*[#   8]+0.056*[#  12]+0.056*[#  16]+0.002*[#   3]+0.002*[#   7]+
          +0.002*[#  11]+0.002*[#  15]+
    |psi|^2 = 0.885

 k =   0.0400000000  0.5773502692  0.0000000000
==== e(   1) =   -14.75503 eV ==== 
     psi = 0.159*[#   1]+0.159*[#   5]+0.159*[#   9]+0.159*[#  13]+0.087*[#   4]+
          +0.087*[#   8]+0.087*[#  12]+0.087*[#  16]+0.001*[#   3]+0.001*[#   7]+
          +0.001*[#  11]+0.001*[#  15]+
    |psi|^2 = 0.992
==== e(   2) =   -14.67606 eV ==== 
     psi = 0.161*[#   1]+0.161*[#   5]+0.161*[#   9]+0.161*[#  13]+0.087*[#   4]+
          +0.087*[#   8]+0.087*[#  12]+0.087*[#  16]+0.001*[#   3]+0.001*[#   7]+
          +0.001*[#  11]+0.001*[#  15]+
    |psi|^2 = 0.994
==== e(   3) =   -13.71533 eV ==== 
     psi = 0.187*[#   4]+0.187*[#   8]+0.187*[#  12]+0.187*[#  16]+0.056*[#   1]+
          +0.056*[#   5]+0.056*[#   9]+0.056*[#  13]+
    |psi|^2 = 0.976
==== e(   4) =   -13.65068 eV ==== 
     psi = 0.188*[#   4]+0.188*[#   8]+0.188*[#  12]+0.188*[#  16]+0.057*[#   1]+
          +0.057*[#   5]+0.057*[#   9]+0.057*[#  13]+
    |psi|^2 = 0.981
==== e(   5) =    -7.05904 eV ==== 
     psi = 0.247*[#  11]+0.247*[#  15]+0.246*[#   3]+0.246*[#   7]+0.002*[#   1]+
          +0.002*[#   5]+0.002*[#   9]+0.002*[#  13]+
    |psi|^2 = 0.995
==== e(   6) =    -7.03966 eV ==== 
     psi = 0.247*[#   3]+0.247*[#   7]+0.246*[#  11]+0.246*[#  15]+0.002*[#   1]+
          +0.002*[#   5]+0.002*[#   9]+0.002*[#  13]+
    |psi|^2 = 0.996
==== e(   7) =    -3.09105 eV ==== 
     psi = 0.249*[#   2]+0.249*[#   6]+0.249*[#  10]+0.249*[#  14]+
    |psi|^2 = 0.998
==== e(   8) =    -2.52993 eV ==== 
     psi = 0.249*[#   2]+0.249*[#   6]+0.249*[#  10]+0.249*[#  14]+
    |psi|^2 = 0.998
==== e(   9) =     0.82533 eV ==== 
     psi = 0.236*[#   2]+0.236*[#   6]+0.236*[#  10]+0.236*[#  14]+
    |psi|^2 = 0.945
==== e(  10) =     1.53103 eV ==== 
     psi = 0.239*[#   2]+0.239*[#   6]+0.239*[#  10]+0.239*[#  14]+
    |psi|^2 = 0.955
==== e(  11) =     6.97880 eV ==== 
     psi = 0.165*[#   1]+0.165*[#   5]+0.165*[#   9]+0.165*[#  13]+0.053*[#   4]+
          +0.053*[#   8]+0.053*[#  12]+0.053*[#  16]+0.002*[#   3]+0.002*[#   7]+
          +0.002*[#  11]+0.002*[#  15]+
    |psi|^2 = 0.877
==== e(  12) =     7.12398 eV ==== 
     psi = 0.165*[#   1]+0.165*[#   5]+0.165*[#   9]+0.165*[#  13]+0.054*[#   4]+
          +0.054*[#   8]+0.054*[#  12]+0.054*[#  16]+0.002*[#   3]+0.002*[#   7]+
          +0.002*[#  11]+0.002*[#  15]+
    |psi|^2 = 0.885

 k =   0.0800000000  0.1385640646  0.0000000000
==== e(   1) =   -19.56742 eV ==== 
     psi = 0.212*[#   1]+0.212*[#   5]+0.212*[#   9]+0.212*[#  13]+0.024*[#   4]+
          +0.024*[#   8]+0.024*[#  12]+0.024*[#  16]+0.008*[#   3]+0.008*[#   7]+
          +0.008*[#  11]+0.008*[#  15]+
    |psi|^2 = 0.978
==== e(   2) =   -19.46194 eV ==== 
     psi = 0.215*[#   1]+0.215*[#   5]+0.215*[#   9]+0.215*[#  13]+0.023*[#   4]+
          +0.023*[#   8]+0.023*[#  12]+0.023*[#  16]+0.008*[#   3]+0.008*[#   7]+
          +0.008*[#  11]+0.008*[#  15]+
    |psi|^2 = 0.985
==== e(   3) =    -7.93214 eV ==== 
     psi = 0.240*[#   2]+0.240*[#   6]+0.240*[#  10]+0.240*[#  14]+
    |psi|^2 = 0.959
==== e(   4) =    -7.15757 eV ==== 
     psi = 0.243*[#   2]+0.243*[#   6]+0.243*[#  10]+0.243*[#  14]+
    |psi|^2 = 0.974
==== e(   5) =    -5.13458 eV ==== 
     psi = 0.165*[#  12]+0.164*[#   8]+0.165*[#  16]+0.164*[#   4]+0.066*[#   3]+
          +0.066*[#  15]+0.066*[#   7]+0.066*[#  11]+0.019*[#   1]+0.019*[#   5]+
          +0.019*[#   9]+0.019*[#  13]+
    |psi|^2 = 0.998
==== e(   6) =    -5.11383 eV ==== 
     psi = 0.165*[#   4]+0.165*[#   8]+0.164*[#  16]+0.164*[#  12]+0.066*[#   3]+
          +0.066*[#   7]+0.066*[#  11]+0.066*[#  15]+0.019*[#   1]+0.019*[#   5]+
          +0.019*[#   9]+0.019*[#  13]+
    |psi|^2 = 0.998
==== e(   7) =    -4.50477 eV ==== 
     psi = 0.176*[#  11]+0.176*[#  15]+0.176*[#   3]+0.176*[#   7]+0.070*[#  12]+
          +0.070*[#  16]+0.070*[#   4]+0.070*[#   8]+0.003*[#   1]+0.003*[#   5]+
          +0.003*[#   9]+0.003*[#  13]+
    |psi|^2 = 0.995
==== e(   8) =    -4.48953 eV ==== 
     psi = 0.176*[#   3]+0.176*[#   7]+0.176*[#  11]+0.176*[#  15]+0.071*[#   4]+
          +0.071*[#   8]+0.071*[#  12]+0.071*[#  16]+0.002*[#   1]+0.002*[#   5]+
          +0.002*[#   9]+0.002*[#  13]+
    |psi|^2 = 0.996
==== e(   9) =     3.50617 eV ==== 
     psi = 0.006*[#   4]+0.006*[#   8]+0.006*[#  12]+0.006*[#  16]+0.002*[#   3]+
          +0.002*[#   7]+0.002*[#  11]+0.002*[#  15]+
    |psi|^2 = 0.039
==== e(  10) =     3.91229 eV ==== 
     psi = 0.004*[#   2]+0.003*[#   6]+0.003*[#  10]+0.004*[#  14]+0.002*[#   4]+
          +0.002*[#   8]+0.002*[#  12]+0.002*[#  16]+
    |psi|^2 = 0.025
==== e(  11) =     4.63984 eV ==== 
     psi = 0.001*[#   4]+0.001*[#   8]+0.001*[#  12]+0.001*[#  16]+
    |psi|^2 = 0.007
==== e(  12) =     5.84286 eV ==== 
     psi = 0.001*[#   2]+0.001*[#   6]+0.001*[#  10]+0.001*[#  14]+
    |psi|^2 = 0.008

 k =   0.0800000000  0.1847520861  0.0000000000
==== e(   1) =   -19.30431 eV ==== 
     psi = 0.199*[#   1]+0.199*[#   5]+0.199*[#   9]+0.199*[#  13]+0.038*[#   4]+
          +0.038*[#   8]+0.038*[#  12]+0.038*[#  16]+0.007*[#   3]+0.007*[#   7]+
          +0.007*[#  11]+0.007*[#  15]+
    |psi|^2 = 0.978
==== e(   2) =   -19.20059 eV ==== 
     psi = 0.202*[#   1]+0.202*[#   5]+0.202*[#   9]+0.202*[#  13]+0.037*[#   4]+
          +0.037*[#   8]+0.037*[#  12]+0.037*[#  16]+0.007*[#   3]+0.007*[#   7]+
          +0.007*[#  11]+0.007*[#  15]+
    |psi|^2 = 0.984
==== e(   3) =    -7.61760 eV ==== 
     psi = 0.241*[#   2]+0.241*[#   6]+0.241*[#  10]+0.241*[#  14]+
    |psi|^2 = 0.965
==== e(   4) =    -6.85121 eV ==== 
     psi = 0.244*[#   2]+0.244*[#   6]+0.244*[#  10]+0.244*[#  14]+
    |psi|^2 = 0.978
==== e(   5) =    -5.87474 eV ==== 
     psi = 0.190*[#  12]+0.190*[#  16]+0.190*[#   4]+0.190*[#   8]+0.032*[#   3]+
          +0.032*[#  15]+0.032*[#   7]+0.032*[#  11]+0.028*[#   1]+0.028*[#   5]+
          +0.028*[#   9]+0.028*[#  13]+
    |psi|^2 = 0.997
==== e(   6) =    -5.84996 eV ==== 
     psi = 0.190*[#   4]+0.190*[#   8]+0.190*[#  12]+0.190*[#  16]+0.032*[#   3]+
          +0.032*[#   7]+0.032*[#  11]+0.032*[#  15]+0.028*[#   1]+0.027*[#   5]+
          +0.027*[#   9]+0.027*[#  13]+
    |psi|^2 = 0.997
==== e(   7) =    -4.96883 eV ==== 
     psi = 0.209*[#  11]+0.209*[#  15]+0.209*[#   3]+0.209*[#   7]+0.035*[#   4]+
          +0.035*[#   8]+0.035*[#  12]+0.035*[#  16]+0.004*[#   1]+0.004*[#   5]+
          +0.004*[#   9]+0.004*[#  13]+
    |psi|^2 = 0.993
==== e(   8) =    -4.95178 eV ==== 
     psi = 0.209*[#   3]+0.209*[#   7]+0.209*[#  11]+0.209*[#  15]+0.036*[#   4]+
          +0.036*[#   8]+0.036*[#  12]+0.036*[#  16]+0.004*[#   1]+0.004*[#   5]+
          +0.004*[#   9]+0.004*[#  13]+
    |psi|^2 = 0.995
==== e(   9) =     3.86179 eV ==== 
     psi = 0.008*[#   4]+0.008*[#   8]+0.008*[#  12]+0.008*[#  16]+0.002*[#   3]+
          +0.002*[#   7]+0.002*[#  11]+0.002*[#  15]+
    |psi|^2 = 0.043
==== e(  10) =     4.27156 eV ==== 
     psi = 0.003*[#   2]+0.003*[#   6]+0.003*[#  10]+0.003*[#  14]+0.003*[#   4]+
          +0.003*[#   8]+0.003*[#  12]+0.003*[#  16]+
    |psi|^2 = 0.025
==== e(  11) =     5.00354 eV ==== 
     psi = 0.002*[#   4]+0.002*[#   8]+0.002*[#  12]+0.002*[#  16]+
    |psi|^2 = 0.008
==== e(  12) =     6.20357 eV ==== 
     psi = 
    |psi|^2 = 0.007

 k =   0.0800000000  0.2309401077  0.0000000000
==== e(   1) =   -18.96728 eV ==== 
     psi = 0.186*[#   1]+0.186*[#   5]+0.186*[#   9]+0.186*[#  13]+0.052*[#   4]+
          +0.052*[#   8]+0.052*[#  12]+0.052*[#  16]+0.006*[#   3]+0.006*[#   7]+
          +0.006*[#  11]+0.006*[#  15]+
    |psi|^2 = 0.977
==== e(   2) =   -18.86577 eV ==== 
     psi = 0.189*[#   1]+0.189*[#   5]+0.189*[#   9]+0.189*[#  13]+0.051*[#   4]+
          +0.051*[#   8]+0.051*[#  12]+0.051*[#  16]+0.006*[#   3]+0.006*[#   7]+
          +0.006*[#  11]+0.006*[#  15]+
    |psi|^2 = 0.984
==== e(   3) =    -7.21674 eV ==== 
     psi = 0.243*[#   2]+0.243*[#   6]+0.243*[#  10]+0.243*[#  14]+
    |psi|^2 = 0.972
==== e(   4) =    -6.74735 eV ==== 
     psi = 0.197*[#  12]+0.197*[#  16]+0.197*[#   4]+0.197*[#   8]+0.037*[#   1]+
          +0.037*[#   5]+0.037*[#   9]+0.037*[#  13]+0.015*[#   3]+0.015*[#   7]+
          +0.015*[#  11]+0.015*[#  15]+
    |psi|^2 = 0.995
==== e(   5) =    -6.71780 eV ==== 
     psi = 0.198*[#   4]+0.198*[#   8]+0.198*[#  12]+0.198*[#  16]+0.037*[#   1]+
          +0.037*[#   5]+0.037*[#   9]+0.037*[#  13]+0.015*[#   3]+0.015*[#   7]+
          +0.015*[#  11]+0.015*[#  15]+
    |psi|^2 = 0.996
==== e(   6) =    -6.46120 eV ==== 
     psi = 0.245*[#   2]+0.245*[#   6]+0.245*[#  10]+0.245*[#  14]+
    |psi|^2 = 0.983
==== e(   7) =    -5.44567 eV ==== 
     psi = 0.226*[#  11]+0.226*[#  15]+0.226*[#   3]+0.226*[#   7]+0.017*[#   4]+
          +0.017*[#   8]+0.017*[#  12]+0.017*[#  16]+0.005*[#   1]+0.005*[#   5]+
          +0.005*[#   9]+0.005*[#  13]+
    |psi|^2 = 0.993
==== e(   8) =    -5.42707 eV ==== 
     psi = 0.226*[#   3]+0.226*[#   7]+0.226*[#  11]+0.226*[#  15]+0.018*[#   4]+
          +0.018*[#   8]+0.018*[#  12]+0.018*[#  16]+0.005*[#   1]+0.005*[#   5]+
          +0.005*[#   9]+0.005*[#  13]+
    |psi|^2 = 0.995
==== e(   9) =     4.31836 eV ==== 
     psi = 0.009*[#   4]+0.009*[#   8]+0.009*[#  12]+0.009*[#  16]+0.001*[#   3]+
          +0.001*[#   7]+0.001*[#  11]+0.001*[#  15]+
    |psi|^2 = 0.043
==== e(  10) =     4.73232 eV ==== 
     psi = 0.003*[#   4]+0.003*[#   8]+0.003*[#  12]+0.003*[#  16]+0.002*[#   2]+
          +0.002*[#   6]+0.002*[#  10]+0.002*[#  14]+
    |psi|^2 = 0.023
==== e(  11) =     5.47085 eV ==== 
     psi = 0.002*[#   4]+0.002*[#   8]+0.002*[#  12]+0.002*[#  16]+
    |psi|^2 = 0.007
==== e(  12) =     6.66579 eV ==== 
     psi = 
    |psi|^2 = 0.007

 k =   0.0800000000  0.2771281292  0.0000000000
==== e(   1) =   -18.55737 eV ==== 
     psi = 0.174*[#   1]+0.174*[#   5]+0.174*[#   9]+0.174*[#  13]+0.065*[#   4]+
          +0.065*[#   8]+0.065*[#  12]+0.065*[#  16]+0.005*[#   3]+0.005*[#   7]+
          +0.005*[#  11]+0.005*[#  15]+
    |psi|^2 = 0.977
==== e(   2) =   -18.45854 eV ==== 
     psi = 0.177*[#   1]+0.177*[#   5]+0.177*[#   9]+0.177*[#  13]+0.064*[#   4]+
          +0.064*[#   8]+0.064*[#  12]+0.064*[#  16]+0.005*[#   3]+0.005*[#   7]+
          +0.005*[#  11]+0.005*[#  15]+
    |psi|^2 = 0.984
==== e(   3) =    -7.70960 eV ==== 
     psi = 0.195*[#  12]+0.195*[#  16]+0.195*[#   4]+0.195*[#   8]+0.046*[#   1]+
          +0.046*[#   5]+0.046*[#   9]+0.046*[#  13]+0.007*[#   3]+0.007*[#   7]+
          +0.007*[#  11]+0.007*[#  15]+
    |psi|^2 = 0.993
==== e(   4) =    -7.67467 eV ==== 
     psi = 0.196*[#   4]+0.196*[#   8]+0.196*[#  12]+0.196*[#  16]+0.046*[#   1]+
          +0.046*[#   5]+0.046*[#   9]+0.046*[#  13]+0.007*[#   3]+0.007*[#   7]+
          +0.007*[#  11]+0.007*[#  15]+
    |psi|^2 = 0.995
==== e(   5) =    -6.73295 eV ==== 
     psi = 0.244*[#   2]+0.244*[#   6]+0.244*[#  10]+0.244*[#  14]+
    |psi|^2 = 0.979
==== e(   6) =    -5.99170 eV ==== 
     psi = 0.246*[#   2]+0.246*[#   6]+0.246*[#  10]+0.246*[#  14]+
    |psi|^2 = 0.988
==== e(   7) =    -5.89927 eV ==== 
     psi = 0.234*[#  11]+0.234*[#  15]+0.233*[#   7]+0.233*[#   3]+0.009*[#   4]+
          +0.009*[#   8]+0.009*[#  12]+0.009*[#  16]+0.006*[#   1]+0.006*[#   5]+
          +0.006*[#   9]+0.006*[#  13]+
    |psi|^2 = 0.994
==== e(   8) =    -5.87924 eV ==== 
     psi = 0.233*[#   3]+0.233*[#   7]+0.233*[#  11]+0.233*[#  15]+0.009*[#   4]+
          +0.009*[#   8]+0.009*[#  12]+0.009*[#  16]+0.006*[#   1]+0.006*[#   5]+
          +0.006*[#   9]+0.006*[#  13]+
    |psi|^2 = 0.995
==== e(   9) =     4.87497 eV ==== 
     psi = 0.008*[#   4]+0.008*[#   8]+0.008*[#  12]+0.008*[#  16]+
    |psi|^2 = 0.039
==== e(  10) =     5.29168 eV ==== 
     psi = 0.003*[#   4]+0.003*[#   8]+0.003*[#  12]+0.003*[#  16]+0.002*[#   2]+
          +0.002*[#   6]+0.002*[#  10]+0.002*[#  14]+
    |psi|^2 = 0.021
==== e(  11) =     6.04070 eV ==== 
     psi = 0.001*[#   4]+0.001*[#   8]+0.001*[#  12]+0.001*[#  16]+
    |psi|^2 = 0.007
==== e(  12) =     6.60282 eV ==== 
     psi = 0.232*[#   2]+0.232*[#  14]+0.231*[#   6]+0.231*[#  10]+
    |psi|^2 = 0.927

 k =   0.0800000000  0.3233161507  0.0000000000
==== e(   1) =   -18.07608 eV ==== 
     psi = 0.163*[#   1]+0.163*[#   5]+0.163*[#   9]+0.163*[#  13]+0.076*[#   4]+
          +0.076*[#   8]+0.076*[#  12]+0.076*[#  16]+0.005*[#   3]+0.005*[#   7]+
          +0.005*[#  11]+0.005*[#  15]+
    |psi|^2 = 0.977
==== e(   2) =   -17.98032 eV ==== 
     psi = 0.166*[#   1]+0.166*[#   5]+0.166*[#   9]+0.166*[#  13]+0.075*[#   4]+
          +0.075*[#   8]+0.075*[#  12]+0.075*[#  16]+0.005*[#   3]+0.005*[#   7]+
          +0.005*[#  11]+0.005*[#  15]+
    |psi|^2 = 0.983
==== e(   3) =    -8.72070 eV ==== 
     psi = 0.189*[#  12]+0.189*[#  16]+0.189*[#   4]+0.189*[#   8]+0.055*[#   1]+
          +0.055*[#   5]+0.055*[#   9]+0.055*[#  13]+0.004*[#   3]+0.004*[#   7]+
          +0.004*[#  11]+0.004*[#  15]+
    |psi|^2 = 0.992
==== e(   4) =    -8.68034 eV ==== 
     psi = 0.190*[#   4]+0.190*[#   8]+0.190*[#  12]+0.190*[#  16]+0.055*[#   1]+
          +0.055*[#   5]+0.055*[#   9]+0.055*[#  13]+0.004*[#   3]+0.004*[#   7]+
          +0.004*[#  11]+0.004*[#  15]+
    |psi|^2 = 0.994
==== e(   5) =    -6.31031 eV ==== 
     psi = 0.237*[#  11]+0.237*[#  15]+0.236*[#   3]+0.236*[#   7]+0.006*[#   1]+
          +0.006*[#   5]+0.007*[#   9]+0.006*[#  13]+0.005*[#   4]+0.005*[#   8]+
          +0.005*[#  12]+0.005*[#  16]+
    |psi|^2 = 0.994
==== e(   6) =    -6.28932 eV ==== 
     psi = 0.237*[#   3]+0.237*[#   7]+0.237*[#  11]+0.237*[#  15]+0.006*[#   1]+
          +0.006*[#   5]+0.006*[#   9]+0.006*[#  13]+0.005*[#   4]+0.005*[#   8]+
          +0.005*[#  12]+0.005*[#  16]+
    |psi|^2 = 0.995
==== e(   7) =    -6.17148 eV ==== 
     psi = 0.246*[#   2]+0.246*[#   6]+0.246*[#  10]+0.246*[#  14]+
    |psi|^2 = 0.985
==== e(   8) =    -5.44774 eV ==== 
     psi = 0.248*[#   2]+0.248*[#   6]+0.248*[#  10]+0.248*[#  14]+
    |psi|^2 = 0.991
==== e(   9) =     5.51041 eV ==== 
     psi = 0.103*[#   2]+0.103*[#  14]+0.103*[#   6]+0.103*[#  10]+0.003*[#   4]+
          +0.003*[#   8]+0.003*[#  12]+0.003*[#  16]+
    |psi|^2 = 0.427
==== e(  10) =     5.55670 eV ==== 
     psi = 0.133*[#   6]+0.133*[#  10]+0.133*[#   2]+0.133*[#  14]+0.003*[#   4]+
          +0.003*[#   8]+0.003*[#  12]+0.003*[#  16]+
    |psi|^2 = 0.547
==== e(  11) =     5.82952 eV ==== 
     psi = 0.123*[#   2]+0.123*[#  14]+0.122*[#   6]+0.122*[#  10]+0.001*[#   4]+
          +0.001*[#   8]+0.001*[#  12]+0.001*[#  16]+
    |psi|^2 = 0.495
==== e(  12) =     6.08294 eV ==== 
     psi = 0.119*[#   6]+0.119*[#  10]+0.119*[#   2]+0.119*[#  14]+0.001*[#   4]+
          +0.001*[#   8]+0.001*[#  12]+0.001*[#  16]+
    |psi|^2 = 0.480

 k =   0.0800000000  0.3695041723  0.0000000000
==== e(   1) =   -17.52549 eV ==== 
     psi = 0.153*[#   1]+0.153*[#   5]+0.153*[#   9]+0.153*[#  13]+0.087*[#   4]+
          +0.087*[#   8]+0.087*[#  12]+0.087*[#  16]+0.004*[#   3]+0.004*[#   7]+
          +0.004*[#  11]+0.004*[#  15]+
    |psi|^2 = 0.978
==== e(   2) =   -17.43319 eV ==== 
     psi = 0.156*[#   1]+0.156*[#   5]+0.156*[#   9]+0.156*[#  13]+0.086*[#   4]+
          +0.086*[#   8]+0.086*[#  12]+0.086*[#  16]+0.004*[#   3]+0.004*[#   7]+
          +0.004*[#  11]+0.004*[#  15]+
    |psi|^2 = 0.984
==== e(   3) =    -9.74851 eV ==== 
     psi = 0.182*[#  12]+0.182*[#  16]+0.182*[#   4]+0.182*[#   8]+0.063*[#   1]+
          +0.063*[#   5]+0.063*[#   9]+0.063*[#  13]+0.003*[#   3]+0.003*[#   7]+
          +0.003*[#  11]+0.003*[#  15]+
    |psi|^2 = 0.990
==== e(   4) =    -9.70262 eV ==== 
     psi = 0.183*[#   4]+0.183*[#   8]+0.183*[#  12]+0.183*[#  16]+0.063*[#   1]+
          +0.063*[#   5]+0.063*[#   9]+0.063*[#  13]+0.003*[#   3]+0.003*[#   7]+
          +0.003*[#  11]+0.003*[#  15]+
    |psi|^2 = 0.993
==== e(   5) =    -6.66578 eV ==== 
     psi = 0.239*[#  11]+0.239*[#  15]+0.238*[#   3]+0.238*[#   7]+0.007*[#   1]+
          +0.007*[#   5]+0.007*[#   9]+0.007*[#  13]+0.003*[#   4]+0.003*[#   8]+
          +0.003*[#  12]+0.003*[#  16]+
    |psi|^2 = 0.994
==== e(   6) =    -6.64423 eV ==== 
     psi = 0.239*[#   3]+0.239*[#   7]+0.238*[#  11]+0.238*[#  15]+0.007*[#   1]+
          +0.007*[#   5]+0.007*[#   9]+0.007*[#  13]+0.004*[#   4]+0.004*[#   8]+
          +0.004*[#  12]+0.004*[#  16]+
    |psi|^2 = 0.995
==== e(   7) =    -5.54178 eV ==== 
     psi = 0.247*[#   2]+0.247*[#   6]+0.247*[#  10]+0.247*[#  14]+
    |psi|^2 = 0.990
==== e(   8) =    -4.83957 eV ==== 
     psi = 0.248*[#   2]+0.248*[#   6]+0.248*[#  10]+0.248*[#  14]+
    |psi|^2 = 0.994
==== e(   9) =     4.43742 eV ==== 
     psi = 0.236*[#   2]+0.236*[#   6]+0.236*[#  10]+0.236*[#  14]+
    |psi|^2 = 0.943
==== e(  10) =     4.89441 eV ==== 
     psi = 0.238*[#   2]+0.238*[#   6]+0.238*[#  10]+0.238*[#  14]+
    |psi|^2 = 0.950
==== e(  11) =     6.28192 eV ==== 
     psi = 0.004*[#   4]+0.004*[#   8]+0.004*[#  12]+0.004*[#  16]+
    |psi|^2 = 0.021
==== e(  12) =     6.73791 eV ==== 
     psi = 0.003*[#   2]+0.003*[#   6]+0.003*[#  10]+0.003*[#  14]+0.001*[#   4]+
          +0.001*[#   8]+0.001*[#  12]+0.001*[#  16]+
    |psi|^2 = 0.019

 k =   0.0800000000  0.4156921938  0.0000000000
==== e(   1) =   -16.90891 eV ==== 
     psi = 0.145*[#   1]+0.145*[#   5]+0.145*[#   9]+0.145*[#  13]+0.096*[#   4]+
          +0.096*[#   8]+0.096*[#  12]+0.096*[#  16]+0.004*[#   3]+0.004*[#   7]+
          +0.004*[#  11]+0.004*[#  15]+
    |psi|^2 = 0.979
==== e(   2) =   -16.82035 eV ==== 
     psi = 0.147*[#   1]+0.147*[#   5]+0.147*[#   9]+0.147*[#  13]+0.095*[#   4]+
          +0.095*[#   8]+0.095*[#  12]+0.095*[#  16]+0.004*[#   3]+0.004*[#   7]+
          +0.004*[#  11]+0.004*[#  15]+
    |psi|^2 = 0.985
==== e(   3) =   -10.76789 eV ==== 
     psi = 0.175*[#   4]+0.175*[#   8]+0.175*[#  12]+0.175*[#  16]+0.070*[#   1]+
          +0.070*[#   5]+0.070*[#   9]+0.070*[#  13]+0.002*[#   3]+0.002*[#   7]+
          +0.002*[#  11]+0.002*[#  15]+
    |psi|^2 = 0.989
==== e(   4) =   -10.71644 eV ==== 
     psi = 0.176*[#   4]+0.176*[#   8]+0.176*[#  12]+0.176*[#  16]+0.070*[#   1]+
          +0.070*[#   5]+0.070*[#   9]+0.070*[#  13]+0.002*[#   3]+0.002*[#   7]+
          +0.002*[#  11]+0.002*[#  15]+
    |psi|^2 = 0.991
==== e(   5) =    -6.95817 eV ==== 
     psi = 0.239*[#  11]+0.239*[#  15]+0.239*[#   3]+0.239*[#   7]+0.007*[#   1]+
          +0.007*[#   5]+0.007*[#   9]+0.007*[#  13]+0.002*[#   4]+0.002*[#   8]+
          +0.002*[#  12]+0.002*[#  16]+
    |psi|^2 = 0.995
==== e(   6) =    -6.93615 eV ==== 
     psi = 0.240*[#   3]+0.239*[#   7]+0.239*[#  11]+0.239*[#  15]+0.007*[#   1]+
          +0.007*[#   5]+0.007*[#   9]+0.007*[#  13]+0.003*[#   4]+0.003*[#   8]+
          +0.003*[#  12]+0.003*[#  16]+
    |psi|^2 = 0.995
==== e(   7) =    -4.85894 eV ==== 
     psi = 0.248*[#   2]+0.248*[#   6]+0.248*[#  10]+0.248*[#  14]+
    |psi|^2 = 0.994
==== e(   8) =    -4.18371 eV ==== 
     psi = 0.249*[#   2]+0.249*[#   6]+0.249*[#  10]+0.249*[#  14]+
    |psi|^2 = 0.996
==== e(   9) =     3.34948 eV ==== 
     psi = 0.236*[#   2]+0.236*[#   6]+0.236*[#  10]+0.236*[#  14]+
    |psi|^2 = 0.944
==== e(  10) =     3.86759 eV ==== 
     psi = 0.239*[#   2]+0.239*[#   6]+0.239*[#  10]+0.239*[#  14]+
    |psi|^2 = 0.955
==== e(  11) =     7.11213 eV ==== 
     psi = 0.007*[#   1]+0.007*[#   5]+0.007*[#   9]+0.007*[#  13]+
    |psi|^2 = 0.032
==== e(  12) =     7.58282 eV ==== 
     psi = 0.008*[#   1]+0.008*[#   5]+0.008*[#   9]+0.008*[#  13]+0.001*[#   2]+
          +0.001*[#   6]+0.001*[#  10]+0.001*[#  14]+
    |psi|^2 = 0.044

 k =   0.0800000000  0.4618802154  0.0000000000
==== e(   1) =   -16.23247 eV ==== 
     psi = 0.139*[#   1]+0.139*[#   5]+0.139*[#   9]+0.139*[#  13]+0.102*[#   4]+
          +0.102*[#   8]+0.102*[#  12]+0.102*[#  16]+0.004*[#   3]+0.004*[#   7]+
          +0.004*[#  11]+0.004*[#  15]+
    |psi|^2 = 0.981
==== e(   2) =   -16.14781 eV ==== 
     psi = 0.141*[#   1]+0.141*[#   5]+0.141*[#   9]+0.141*[#  13]+0.102*[#   4]+
          +0.102*[#   8]+0.102*[#  12]+0.102*[#  16]+0.004*[#   3]+0.004*[#   7]+
          +0.004*[#  11]+0.004*[#  15]+
    |psi|^2 = 0.986
==== e(   3) =   -11.75770 eV ==== 
     psi = 0.169*[#   4]+0.169*[#   8]+0.169*[#  12]+0.169*[#  16]+0.076*[#   1]+
          +0.076*[#   5]+0.076*[#   9]+0.076*[#  13]+0.002*[#   3]+0.002*[#   7]+
          +0.002*[#  11]+0.002*[#  15]+
    |psi|^2 = 0.987
==== e(   4) =   -11.70097 eV ==== 
     psi = 0.170*[#   4]+0.170*[#   8]+0.170*[#  12]+0.170*[#  16]+0.076*[#   1]+
          +0.076*[#   5]+0.076*[#   9]+0.076*[#  13]+0.002*[#   3]+0.002*[#   7]+
          +0.002*[#  11]+0.002*[#  15]+
    |psi|^2 = 0.990
==== e(   5) =    -7.18175 eV ==== 
     psi = 0.240*[#  11]+0.240*[#  15]+0.239*[#   3]+0.240*[#   7]+0.007*[#   1]+
          +0.007*[#   5]+0.007*[#   9]+0.007*[#  13]+0.002*[#   4]+0.002*[#   8]+
          +0.002*[#  12]+0.002*[#  16]+
    |psi|^2 = 0.995
==== e(   6) =    -7.15927 eV ==== 
     psi = 0.240*[#   3]+0.240*[#   7]+0.240*[#  11]+0.240*[#  15]+0.007*[#   1]+
          +0.007*[#   5]+0.007*[#   9]+0.007*[#  13]+0.002*[#   4]+0.002*[#   8]+
          +0.002*[#  12]+0.002*[#  16]+
    |psi|^2 = 0.995
==== e(   7) =    -4.15446 eV ==== 
     psi = 0.249*[#   2]+0.249*[#   6]+0.249*[#  10]+0.249*[#  14]+
    |psi|^2 = 0.996
==== e(   8) =    -3.51275 eV ==== 
     psi = 0.249*[#   2]+0.249*[#   6]+0.249*[#  10]+0.249*[#  14]+
    |psi|^2 = 0.997
==== e(   9) =     2.32374 eV ==== 
     psi = 0.236*[#   2]+0.236*[#   6]+0.236*[#  10]+0.236*[#  14]+
    |psi|^2 = 0.946
==== e(  10) =     2.90073 eV ==== 
     psi = 0.239*[#   2]+0.239*[#   6]+0.239*[#  10]+0.239*[#  14]+
    |psi|^2 = 0.957
==== e(  11) =     7.55405 eV ==== 
     psi = 0.138*[#   1]+0.138*[#  13]+0.138*[#   5]+0.138*[#   9]+0.050*[#   4]+
          +0.050*[#   8]+0.050*[#  12]+0.050*[#  16]+0.007*[#   3]+0.007*[#   7]+
          +0.007*[#  11]+0.007*[#  15]+
    |psi|^2 = 0.781
==== e(  12) =     7.72826 eV ==== 
     psi = 0.147*[#   5]+0.147*[#   9]+0.147*[#   1]+0.147*[#  13]+0.062*[#   4]+
          +0.062*[#   8]+0.062*[#  12]+0.062*[#  16]+0.007*[#   3]+0.007*[#   7]+
          +0.007*[#  11]+0.007*[#  15]+
    |psi|^2 = 0.868

 k =   0.0800000000  0.5080682369  0.0000000000
==== e(   1) =   -15.51246 eV ==== 
     psi = 0.137*[#   1]+0.137*[#   5]+0.137*[#   9]+0.137*[#  13]+0.105*[#   4]+
          +0.105*[#   8]+0.105*[#  12]+0.105*[#  16]+0.004*[#   3]+0.004*[#   7]+
          +0.004*[#  11]+0.004*[#  15]+
    |psi|^2 = 0.984
==== e(   2) =   -15.43166 eV ==== 
     psi = 0.139*[#   1]+0.139*[#   5]+0.139*[#   9]+0.139*[#  13]+0.105*[#   4]+
          +0.105*[#   8]+0.105*[#  12]+0.105*[#  16]+0.004*[#   3]+0.004*[#   7]+
          +0.004*[#  11]+0.004*[#  15]+
    |psi|^2 = 0.988
==== e(   3) =   -12.69157 eV ==== 
     psi = 0.167*[#   4]+0.167*[#   8]+0.167*[#  12]+0.167*[#  16]+0.078*[#   1]+
          +0.078*[#   5]+0.078*[#   9]+0.078*[#  13]+0.001*[#   3]+0.001*[#   7]+
          +0.001*[#  11]+0.001*[#  15]+
    |psi|^2 = 0.984
==== e(   4) =   -12.63012 eV ==== 
     psi = 0.168*[#   4]+0.168*[#   8]+0.168*[#  12]+0.168*[#  16]+0.078*[#   1]+
          +0.078*[#   5]+0.078*[#   9]+0.078*[#  13]+0.001*[#   3]+0.001*[#   7]+
          +0.001*[#  11]+0.001*[#  15]+
    |psi|^2 = 0.987
==== e(   5) =    -7.33269 eV ==== 
     psi = 0.240*[#  11]+0.240*[#  15]+0.240*[#   3]+0.240*[#   7]+0.007*[#   1]+
          +0.007*[#   5]+0.007*[#   9]+0.007*[#  13]+0.002*[#   4]+0.002*[#   8]+
          +0.002*[#  12]+0.002*[#  16]+
    |psi|^2 = 0.995
==== e(   6) =    -7.30995 eV ==== 
     psi = 0.240*[#   3]+0.240*[#   7]+0.240*[#  11]+0.240*[#  15]+0.007*[#   1]+
          +0.007*[#   5]+0.007*[#   9]+0.007*[#  13]+0.002*[#   4]+0.002*[#   8]+
          +0.002*[#  12]+0.002*[#  16]+
    |psi|^2 = 0.995
==== e(   7) =    -3.49861 eV ==== 
     psi = 0.249*[#   2]+0.249*[#   6]+0.249*[#  10]+0.249*[#  14]+
    |psi|^2 = 0.997
==== e(   8) =    -2.89693 eV ==== 
     psi = 0.249*[#   6]+0.249*[#  10]+0.249*[#   2]+0.249*[#  14]+
    |psi|^2 = 0.997
==== e(   9) =     1.44549 eV ==== 
     psi = 0.237*[#   2]+0.237*[#   6]+0.237*[#  10]+0.237*[#  14]+
    |psi|^2 = 0.948
==== e(  10) =     2.07976 eV ==== 
     psi = 0.239*[#   2]+0.239*[#   6]+0.239*[#  10]+0.239*[#  14]+
    |psi|^2 = 0.958
==== e(  11) =     7.50311 eV ==== 
     psi = 0.153*[#   1]+0.153*[#   9]+0.153*[#  13]+0.153*[#   5]+0.054*[#   4]+
          +0.054*[#   8]+0.054*[#  12]+0.054*[#  16]+0.007*[#   3]+0.007*[#   7]+
          +0.007*[#  11]+0.007*[#  15]+
    |psi|^2 = 0.857
==== e(  12) =     7.65806 eV ==== 
     psi = 0.154*[#   1]+0.155*[#   5]+0.155*[#   9]+0.154*[#  13]+0.057*[#   4]+
          +0.057*[#   8]+0.057*[#  12]+0.057*[#  16]+0.007*[#   3]+0.007*[#   7]+
          +0.007*[#  11]+0.007*[#  15]+
    |psi|^2 = 0.876

 k =   0.0800000000  0.5542562584  0.0000000000
==== e(   1) =   -14.83542 eV ==== 
     psi = 0.148*[#   1]+0.148*[#   5]+0.148*[#   9]+0.148*[#  13]+0.095*[#   4]+
          +0.095*[#   8]+0.095*[#  12]+0.095*[#  16]+0.004*[#   3]+0.004*[#   7]+
          +0.004*[#  11]+0.004*[#  15]+
    |psi|^2 = 0.989
==== e(   2) =   -14.75709 eV ==== 
     psi = 0.149*[#   1]+0.149*[#   5]+0.149*[#   9]+0.149*[#  13]+0.094*[#   4]+
          +0.094*[#   8]+0.094*[#  12]+0.094*[#  16]+0.004*[#   3]+0.004*[#   7]+
          +0.004*[#  11]+0.004*[#  15]+
    |psi|^2 = 0.992
==== e(   3) =   -13.47693 eV ==== 
     psi = 0.178*[#   4]+0.178*[#   8]+0.178*[#  12]+0.178*[#  16]+0.067*[#   1]+
          +0.067*[#   5]+0.067*[#   9]+0.067*[#  13]+
    |psi|^2 = 0.979
==== e(   4) =   -13.41259 eV ==== 
     psi = 0.178*[#   4]+0.178*[#   8]+0.178*[#  12]+0.178*[#  16]+0.067*[#   1]+
          +0.067*[#   5]+0.067*[#   9]+0.067*[#  13]+
    |psi|^2 = 0.983
==== e(   5) =    -7.40869 eV ==== 
     psi = 0.240*[#  11]+0.240*[#  15]+0.240*[#   3]+0.240*[#   7]+0.007*[#   1]+
          +0.007*[#   5]+0.007*[#   9]+0.007*[#  13]+0.001*[#   4]+0.001*[#   8]+
          +0.001*[#  12]+0.001*[#  16]+
    |psi|^2 = 0.995
==== e(   6) =    -7.38587 eV ==== 
     psi = 0.240*[#   3]+0.240*[#   7]+0.240*[#  11]+0.240*[#  15]+0.007*[#   1]+
          +0.007*[#   5]+0.007*[#   9]+0.007*[#  13]+0.002*[#   4]+0.002*[#   8]+
          +0.001*[#  12]+0.001*[#  16]+
    |psi|^2 = 0.995
==== e(   7) =    -3.05261 eV ==== 
     psi = 0.249*[#   2]+0.249*[#   6]+0.249*[#  10]+0.249*[#  14]+
    |psi|^2 = 0.998
==== e(   8) =    -2.48688 eV ==== 
     psi = 0.249*[#   2]+0.249*[#   6]+0.249*[#  10]+0.249*[#  14]+
    |psi|^2 = 0.998
==== e(   9) =     0.88581 eV ==== 
     psi = 0.237*[#   2]+0.237*[#   6]+0.237*[#  10]+0.237*[#  14]+
    |psi|^2 = 0.948
==== e(  10) =     1.56483 eV ==== 
     psi = 0.239*[#   2]+0.240*[#   6]+0.239*[#  10]+0.239*[#  14]+
    |psi|^2 = 0.958
==== e(  11) =     7.46780 eV ==== 
     psi = 0.157*[#   1]+0.157*[#   5]+0.157*[#   9]+0.157*[#  13]+0.052*[#   4]+
          +0.052*[#   8]+0.052*[#  12]+0.052*[#  16]+0.007*[#   3]+0.007*[#   7]+
          +0.007*[#  11]+0.007*[#  15]+
    |psi|^2 = 0.867
==== e(  12) =     7.62095 eV ==== 
     psi = 0.158*[#   1]+0.158*[#   5]+0.158*[#   9]+0.158*[#  13]+0.054*[#   4]+
          +0.054*[#   8]+0.054*[#  12]+0.054*[#  16]+0.007*[#   3]+0.007*[#   7]+
          +0.007*[#  11]+0.007*[#  15]+
    |psi|^2 = 0.877

 k =   0.1200000000  0.2078460969  0.0000000000
==== e(   1) =   -19.00468 eV ==== 
     psi = 0.187*[#   1]+0.187*[#   5]+0.187*[#   9]+0.187*[#  13]+0.043*[#   4]+
          +0.043*[#   8]+0.043*[#  12]+0.043*[#  16]+0.014*[#   3]+0.014*[#   7]+
          +0.014*[#  11]+0.014*[#  15]+
    |psi|^2 = 0.977
==== e(   2) =   -18.90293 eV ==== 
     psi = 0.190*[#   1]+0.190*[#   5]+0.190*[#   9]+0.190*[#  13]+0.042*[#   4]+
          +0.042*[#   8]+0.042*[#  12]+0.042*[#  16]+0.014*[#   3]+0.014*[#   7]+
          +0.014*[#  11]+0.014*[#  15]+
    |psi|^2 = 0.984
==== e(   3) =    -7.26089 eV ==== 
[...]
     psi = 0.248*[#   2]+0.248*[#  14]+0.246*[#   6]+0.246*[#  10]+
    |psi|^2 = 0.990
==== e(  11) =     9.53459 eV ==== 
     psi = 
    |psi|^2 = 0.004
==== e(  12) =    10.91868 eV ==== 
     psi = 
    |psi|^2 = 0.005

 k =  -0.3200000000  0.5080682369  0.0000000000
==== e(   1) =   -14.05327 eV ==== 
     psi = 0.124*[#   5]+0.124*[#   9]+0.124*[#   1]+0.124*[#  13]+0.082*[#   4]+
          +0.082*[#  16]+0.082*[#   8]+0.082*[#  12]+0.042*[#   3]+0.042*[#  15]+
          +0.041*[#   7]+0.041*[#  11]+
    |psi|^2 = 0.989
==== e(   2) =   -13.98153 eV ==== 
     psi = 0.125*[#   1]+0.125*[#  13]+0.125*[#   5]+0.125*[#   9]+0.082*[#   8]+
          +0.082*[#  12]+0.082*[#   4]+0.082*[#  16]+0.042*[#   7]+0.042*[#  11]+
          +0.041*[#   3]+0.041*[#  15]+
    |psi|^2 = 0.991
==== e(   3) =   -12.43999 eV ==== 
     psi = 0.103*[#   5]+0.103*[#   9]+0.102*[#   1]+0.102*[#  13]+0.099*[#   3]+
          +0.099*[#   7]+0.099*[#  11]+0.099*[#  15]+0.047*[#   4]+0.047*[#  16]+
          +0.046*[#   8]+0.046*[#  12]+
    |psi|^2 = 0.992
==== e(   4) =   -12.37894 eV ==== 
     psi = 0.103*[#   1]+0.103*[#  13]+0.103*[#   5]+0.103*[#   9]+0.099*[#   3]+
          +0.099*[#   7]+0.099*[#  11]+0.099*[#  15]+0.047*[#   8]+0.046*[#  12]+
          +0.046*[#   4]+0.046*[#  16]+
    |psi|^2 = 0.993
==== e(   5) =   -10.59062 eV ==== 
     psi = 0.124*[#   4]+0.124*[#  12]+0.124*[#  16]+0.124*[#   8]+0.109*[#   7]+
          +0.109*[#  11]+0.109*[#   3]+0.109*[#  15]+0.013*[#   1]+0.013*[#  13]+
          +0.012*[#   5]+0.012*[#   9]+
    |psi|^2 = 0.983
==== e(   6) =   -10.54540 eV ==== 
     psi = 0.125*[#   4]+0.125*[#   8]+0.125*[#  12]+0.125*[#  16]+0.109*[#   3]+
          +0.109*[#  15]+0.109*[#   7]+0.109*[#  11]+0.013*[#   5]+0.013*[#   9]+
          +0.013*[#   1]+0.012*[#  13]+
    |psi|^2 = 0.986
==== e(   7) =    -1.81130 eV ==== 
     psi = 0.251*[#   6]+0.251*[#  10]+0.247*[#   2]+0.247*[#  14]+
    |psi|^2 = 0.995
==== e(   8) =    -1.25824 eV ==== 
     psi = 0.253*[#   2]+0.253*[#  14]+0.245*[#   6]+0.245*[#  10]+
    |psi|^2 = 0.995
==== e(   9) =     0.27455 eV ==== 
     psi = 0.251*[#   6]+0.251*[#  10]+0.243*[#   2]+0.243*[#  14]+
    |psi|^2 = 0.989
==== e(  10) =     0.78026 eV ==== 
     psi = 0.250*[#   2]+0.250*[#  14]+0.245*[#   6]+0.245*[#  10]+
    |psi|^2 = 0.990
==== e(  11) =     9.53446 eV ==== 
     psi = 
    |psi|^2 = 0.004
==== e(  12) =    10.91873 eV ==== 
     psi = 
    |psi|^2 = 0.005

 k =   0.6000000000  0.0230940108  0.0000000000
==== e(   1) =   -14.05332 eV ==== 
     psi = 0.124*[#   1]+0.124*[#  13]+0.124*[#   5]+0.124*[#   9]+0.106*[#   7]+
          +0.106*[#  11]+0.106*[#   3]+0.106*[#  15]+0.017*[#   4]+0.017*[#   8]+
          +0.017*[#  12]+0.017*[#  16]+
    |psi|^2 = 0.989
==== e(   2) =   -13.98161 eV ==== 
     psi = 0.125*[#   5]+0.125*[#   9]+0.125*[#   1]+0.125*[#  13]+0.106*[#   3]+
          +0.106*[#  15]+0.106*[#   7]+0.106*[#  11]+0.017*[#   4]+0.017*[#   8]+
          +0.017*[#  12]+0.017*[#  16]+
    |psi|^2 = 0.991
==== e(   3) =   -12.43977 eV ==== 
     psi = 0.103*[#   1]+0.103*[#  13]+0.102*[#   5]+0.102*[#   9]+0.086*[#   7]+
          +0.086*[#  11]+0.086*[#   3]+0.086*[#  15]+0.059*[#   4]+0.060*[#   8]+
          +0.060*[#  12]+0.059*[#  16]+
    |psi|^2 = 0.992
==== e(   4) =   -12.37853 eV ==== 
     psi = 0.103*[#   5]+0.103*[#   9]+0.103*[#   1]+0.103*[#  13]+0.086*[#   3]+
          +0.086*[#  15]+0.086*[#   7]+0.086*[#  11]+0.060*[#   4]+0.059*[#   8]+
          +0.059*[#  12]+0.060*[#  16]+
    |psi|^2 = 0.993
==== e(   5) =   -10.59093 eV ==== 
     psi = 0.167*[#  12]+0.167*[#   4]+0.167*[#   8]+0.167*[#  16]+0.066*[#   3]+
          +0.066*[#   7]+0.066*[#  11]+0.066*[#  15]+0.013*[#   1]+0.013*[#   5]+
          +0.013*[#   9]+0.013*[#  13]+
    |psi|^2 = 0.983
==== e(   6) =   -10.54563 eV ==== 
     psi = 0.167*[#   4]+0.167*[#   8]+0.167*[#  12]+0.167*[#  16]+0.067*[#   3]+
          +0.067*[#   7]+0.067*[#  11]+0.067*[#  15]+0.013*[#   1]+0.013*[#   5]+
          +0.013*[#   9]+0.013*[#  13]+
    |psi|^2 = 0.986
==== e(   7) =    -1.81144 eV ==== 
     psi = 0.250*[#   2]+0.250*[#  14]+0.248*[#   6]+0.248*[#  10]+
    |psi|^2 = 0.995
==== e(   8) =    -1.25861 eV ==== 
     psi = 0.251*[#   6]+0.251*[#  10]+0.247*[#   2]+0.247*[#  14]+
    |psi|^2 = 0.995
==== e(   9) =     0.27407 eV ==== 
     psi = 0.249*[#   2]+0.249*[#  14]+0.245*[#   6]+0.245*[#  10]+
    |psi|^2 = 0.989
==== e(  10) =     0.78151 eV ==== 
     psi = 0.249*[#   6]+0.249*[#  10]+0.246*[#   2]+0.246*[#  14]+
    |psi|^2 = 0.990
==== e(  11) =     9.53419 eV ==== 
     psi = 
    |psi|^2 = 0.004
==== e(  12) =    10.91810 eV ==== 
     psi = 
    |psi|^2 = 0.006

 k =  -0.3200000000 -0.5080682369  0.0000000000
==== e(   1) =   -14.05327 eV ==== 
     psi = 0.124*[#   1]+0.124*[#  13]+0.124*[#   5]+0.124*[#   9]+0.082*[#   8]+
          +0.082*[#  12]+0.082*[#   4]+0.082*[#  16]+0.042*[#   7]+0.042*[#  11]+
          +0.041*[#   3]+0.041*[#  15]+
    |psi|^2 = 0.989
==== e(   2) =   -13.98153 eV ==== 
     psi = 0.125*[#   5]+0.125*[#   9]+0.125*[#   1]+0.125*[#  13]+0.082*[#   4]+
          +0.082*[#  16]+0.082*[#   8]+0.082*[#  12]+0.042*[#   3]+0.042*[#  15]+
          +0.041*[#   7]+0.041*[#  11]+
    |psi|^2 = 0.991
==== e(   3) =   -12.43999 eV ==== 
     psi = 0.103*[#   1]+0.103*[#  13]+0.102*[#   5]+0.102*[#   9]+0.099*[#   3]+
          +0.099*[#   7]+0.099*[#  11]+0.099*[#  15]+0.047*[#   8]+0.047*[#  12]+
          +0.046*[#   4]+0.046*[#  16]+
    |psi|^2 = 0.992
==== e(   4) =   -12.37894 eV ==== 
     psi = 0.103*[#   5]+0.103*[#   9]+0.103*[#   1]+0.103*[#  13]+0.099*[#   3]+
          +0.099*[#   7]+0.099*[#  11]+0.099*[#  15]+0.047*[#   4]+0.046*[#  16]+
          +0.046*[#   8]+0.046*[#  12]+
    |psi|^2 = 0.993
==== e(   5) =   -10.59062 eV ==== 
     psi = 0.124*[#  12]+0.124*[#   4]+0.124*[#   8]+0.124*[#  16]+0.109*[#   3]+
          +0.109*[#  15]+0.109*[#   7]+0.109*[#  11]+0.013*[#   5]+0.013*[#   9]+
          +0.012*[#   1]+0.012*[#  13]+
    |psi|^2 = 0.983
==== e(   6) =   -10.54540 eV ==== 
     psi = 0.125*[#   4]+0.125*[#   8]+0.125*[#  12]+0.125*[#  16]+0.109*[#   7]+
          +0.109*[#  11]+0.109*[#   3]+0.109*[#  15]+0.013*[#   1]+0.013*[#  13]+
          +0.013*[#   5]+0.012*[#   9]+
    |psi|^2 = 0.986
==== e(   7) =    -1.81130 eV ==== 
     psi = 0.251*[#   2]+0.251*[#  14]+0.247*[#   6]+0.247*[#  10]+
    |psi|^2 = 0.995
==== e(   8) =    -1.25824 eV ==== 
     psi = 0.253*[#   6]+0.253*[#  10]+0.245*[#   2]+0.245*[#  14]+
    |psi|^2 = 0.995
==== e(   9) =     0.27455 eV ==== 
     psi = 0.251*[#   2]+0.251*[#  14]+0.243*[#   6]+0.243*[#  10]+
    |psi|^2 = 0.989
==== e(  10) =     0.78026 eV ==== 
     psi = 0.250*[#   6]+0.250*[#  10]+0.245*[#   2]+0.245*[#  14]+
    |psi|^2 = 0.990
==== e(  11) =     9.53446 eV ==== 
     psi = 
    |psi|^2 = 0.004
==== e(  12) =    10.91873 eV ==== 
     psi = 
    |psi|^2 = 0.005

 k =   0.6000000000 -0.0230940108  0.0000000000
==== e(   1) =   -14.05332 eV ==== 
     psi = 0.124*[#   5]+0.124*[#   9]+0.124*[#   1]+0.124*[#  13]+0.106*[#   3]+
          +0.106*[#  15]+0.106*[#   7]+0.106*[#  11]+0.017*[#   4]+0.017*[#   8]+
          +0.017*[#  12]+0.017*[#  16]+
    |psi|^2 = 0.989
==== e(   2) =   -13.98161 eV ==== 
     psi = 0.125*[#   1]+0.125*[#  13]+0.125*[#   5]+0.125*[#   9]+0.106*[#   7]+
          +0.106*[#  11]+0.106*[#   3]+0.106*[#  15]+0.017*[#   4]+0.017*[#   8]+
          +0.017*[#  12]+0.017*[#  16]+
    |psi|^2 = 0.991
==== e(   3) =   -12.43977 eV ==== 
     psi = 0.103*[#   5]+0.103*[#   9]+0.102*[#   1]+0.102*[#  13]+0.086*[#   3]+
          +0.086*[#  15]+0.086*[#   7]+0.086*[#  11]+0.060*[#   4]+0.060*[#  16]+
          +0.059*[#   8]+0.059*[#  12]+
    |psi|^2 = 0.992
==== e(   4) =   -12.37853 eV ==== 
     psi = 0.103*[#   1]+0.103*[#  13]+0.103*[#   5]+0.103*[#   9]+0.086*[#   7]+
          +0.086*[#  11]+0.086*[#   3]+0.086*[#  15]+0.059*[#   4]+0.060*[#   8]+
          +0.060*[#  12]+0.059*[#  16]+
    |psi|^2 = 0.993
==== e(   5) =   -10.59093 eV ==== 
     psi = 0.167*[#   4]+0.167*[#   8]+0.167*[#  12]+0.167*[#  16]+0.066*[#   3]+
          +0.066*[#   7]+0.066*[#  11]+0.066*[#  15]+0.013*[#   1]+0.013*[#   5]+
          +0.013*[#   9]+0.013*[#  13]+
    |psi|^2 = 0.983
==== e(   6) =   -10.54563 eV ==== 
     psi = 0.167*[#   4]+0.167*[#   8]+0.167*[#  12]+0.167*[#  16]+0.067*[#   3]+
          +0.067*[#   7]+0.067*[#  11]+0.067*[#  15]+0.013*[#   1]+0.013*[#   5]+
          +0.013*[#   9]+0.013*[#  13]+
    |psi|^2 = 0.986
==== e(   7) =    -1.81144 eV ==== 
     psi = 0.250*[#   6]+0.250*[#  10]+0.248*[#   2]+0.248*[#  14]+
    |psi|^2 = 0.995
==== e(   8) =    -1.25861 eV ==== 
     psi = 0.251*[#   2]+0.251*[#  14]+0.247*[#   6]+0.247*[#  10]+
    |psi|^2 = 0.995
==== e(   9) =     0.27407 eV ==== 
     psi = 0.249*[#   6]+0.249*[#  10]+0.245*[#   2]+0.245*[#  14]+
    |psi|^2 = 0.989
==== e(  10) =     0.78151 eV ==== 
     psi = 0.249*[#   2]+0.249*[#  14]+0.246*[#   6]+0.246*[#  10]+
    |psi|^2 = 0.990
==== e(  11) =     9.53419 eV ==== 
     psi = 
    |psi|^2 = 0.004
==== e(  12) =    10.91810 eV ==== 
     psi = 
    |psi|^2 = 0.006

 k =  -0.3600000000  0.5311622477  0.0000000000
==== e(   1) =   -13.59197 eV ==== 
     psi = 0.130*[#   5]+0.131*[#   9]+0.129*[#   1]+0.129*[#  13]+0.065*[#   3]+
          +0.065*[#  15]+0.064*[#   7]+0.064*[#  11]+0.054*[#   4]+0.054*[#  16]+
          +0.054*[#   8]+0.054*[#  12]+
    |psi|^2 = 0.992
==== e(   2) =   -13.52243 eV ==== 
     psi = 0.131*[#   1]+0.131*[#  13]+0.130*[#   5]+0.130*[#   9]+0.065*[#   7]+
          +0.065*[#  11]+0.063*[#   3]+0.063*[#  15]+0.054*[#   8]+0.054*[#  12]+
          +0.053*[#   4]+0.053*[#  16]+
    |psi|^2 = 0.994
==== e(   3) =   -12.87391 eV ==== 
     psi = 0.107*[#   3]+0.107*[#  15]+0.106*[#   7]+0.106*[#  11]+0.097*[#   5]+
          +0.097*[#   9]+0.095*[#   1]+0.095*[#  13]+0.045*[#   4]+0.045*[#  16]+
          +0.044*[#   8]+0.044*[#  12]+
    |psi|^2 = 0.989
==== e(   4) =   -12.81099 eV ==== 
     psi = 0.107*[#   7]+0.107*[#  11]+0.107*[#   3]+0.106*[#  15]+0.097*[#   1]+
          +0.097*[#  13]+0.096*[#   5]+0.096*[#   9]+0.045*[#   8]+0.044*[#  12]+
          +0.044*[#   4]+0.044*[#  16]+
    |psi|^2 = 0.991
==== e(   5) =   -10.69875 eV ==== 
     psi = 0.150*[#   4]+0.150*[#   8]+0.150*[#  12]+0.150*[#  16]+0.083*[#   7]+
          +0.083*[#  11]+0.083*[#   3]+0.083*[#  15]+0.013*[#   1]+0.013*[#   5]+
          +0.013*[#   9]+0.013*[#  13]+
    |psi|^2 = 0.983
==== e(   6) =   -10.65297 eV ==== 
     psi = 0.150*[#   4]+0.150*[#   8]+0.150*[#  12]+0.150*[#  16]+0.083*[#   3]+
          +0.083*[#   7]+0.083*[#  15]+0.083*[#  11]+0.013*[#   1]+0.013*[#   5]+
          +0.013*[#   9]+0.013*[#  13]+
    |psi|^2 = 0.986
==== e(   7) =    -1.44303 eV ==== 
     psi = 0.253*[#   6]+0.253*[#  10]+0.245*[#   2]+0.245*[#  14]+
    |psi|^2 = 0.996
==== e(   8) =    -0.91068 eV ==== 
     psi = 0.259*[#   2]+0.259*[#  14]+0.239*[#   6]+0.239*[#  10]+
    |psi|^2 = 0.995
==== e(   9) =    -0.09600 eV ==== 
     psi = 0.257*[#   6]+0.257*[#  10]+0.237*[#   2]+0.237*[#  14]+
    |psi|^2 = 0.989
==== e(  10) =     0.42569 eV ==== 
     psi = 0.252*[#   2]+0.252*[#  14]+0.243*[#   6]+0.243*[#  10]+
    |psi|^2 = 0.990
==== e(  11) =     9.45577 eV ==== 
     psi = 
    |psi|^2 = 0.004
==== e(  12) =    11.04956 eV ==== 
     psi = 
    |psi|^2 = 0.007

 k =   0.6400000000  0.0461880215  0.0000000000
==== e(   1) =   -13.59197 eV ==== 
     psi = 0.130*[#   1]+0.131*[#  13]+0.129*[#   5]+0.129*[#   9]+0.065*[#   7]+
          +0.065*[#  11]+0.064*[#   3]+0.064*[#  15]+0.054*[#   8]+0.054*[#  12]+
          +0.054*[#   4]+0.054*[#  16]+
    |psi|^2 = 0.992
==== e(   2) =   -13.52243 eV ==== 
     psi = 0.131*[#   5]+0.131*[#   9]+0.130*[#   1]+0.130*[#  13]+0.065*[#   3]+
          +0.065*[#  15]+0.063*[#   7]+0.063*[#  11]+0.054*[#   4]+0.054*[#  16]+
          +0.053*[#   8]+0.053*[#  12]+
    |psi|^2 = 0.994
==== e(   3) =   -12.87391 eV ==== 
     psi = 0.107*[#   7]+0.107*[#  11]+0.106*[#   3]+0.106*[#  15]+0.097*[#   1]+
          +0.097*[#  13]+0.095*[#   5]+0.095*[#   9]+0.045*[#   8]+0.045*[#  12]+
          +0.044*[#   4]+0.044*[#  16]+
    |psi|^2 = 0.989
==== e(   4) =   -12.81099 eV ==== 
     psi = 0.107*[#   3]+0.107*[#  15]+0.107*[#   7]+0.106*[#  11]+0.097*[#   5]+
          +0.097*[#   9]+0.096*[#   1]+0.096*[#  13]+0.045*[#   4]+0.044*[#  16]+
          +0.044*[#   8]+0.044*[#  12]+
    |psi|^2 = 0.991
==== e(   5) =   -10.69875 eV ==== 
     psi = 0.150*[#  12]+0.150*[#   4]+0.150*[#   8]+0.150*[#  16]+0.083*[#   3]+
          +0.083*[#  15]+0.083*[#   7]+0.083*[#  11]+0.013*[#   5]+0.013*[#   9]+
          +0.013*[#   1]+0.013*[#  13]+
    |psi|^2 = 0.983
==== e(   6) =   -10.65297 eV ==== 
     psi = 0.150*[#   4]+0.150*[#   8]+0.150*[#  12]+0.150*[#  16]+0.083*[#   7]+
          +0.083*[#   3]+0.083*[#  11]+0.083*[#  15]+0.013*[#   1]+0.013*[#   5]+
          +0.013*[#   9]+0.013*[#  13]+
    |psi|^2 = 0.986
==== e(   7) =    -1.44303 eV ==== 
     psi = 0.253*[#   2]+0.253*[#  14]+0.245*[#   6]+0.245*[#  10]+
    |psi|^2 = 0.996
==== e(   8) =    -0.91068 eV ==== 
     psi = 0.259*[#   6]+0.259*[#  10]+0.239*[#   2]+0.239*[#  14]+
    |psi|^2 = 0.995
==== e(   9) =    -0.09600 eV ==== 
     psi = 0.257*[#   2]+0.257*[#  14]+0.237*[#   6]+0.237*[#  10]+
    |psi|^2 = 0.989
==== e(  10) =     0.42569 eV ==== 
     psi = 0.252*[#   6]+0.252*[#  10]+0.243*[#   2]+0.243*[#  14]+
    |psi|^2 = 0.990
==== e(  11) =     9.45577 eV ==== 
     psi = 
    |psi|^2 = 0.004
==== e(  12) =    11.04956 eV ==== 
     psi = 
    |psi|^2 = 0.007

 k =  -0.3200000000  0.5542562584  0.0000000000
==== e(   1) =   -13.42707 eV ==== 
     psi = 0.123*[#   5]+0.123*[#   9]+0.122*[#   1]+0.122*[#  13]+0.076*[#   4]+
          +0.076*[#  16]+0.076*[#   8]+0.076*[#  12]+0.050*[#   3]+0.050*[#  15]+
          +0.049*[#   7]+0.049*[#  11]+
    |psi|^2 = 0.991
==== e(   2) =   -13.35895 eV ==== 
     psi = 0.124*[#   1]+0.124*[#  13]+0.122*[#   5]+0.122*[#   9]+0.076*[#   8]+
          +0.076*[#  12]+0.076*[#   4]+0.076*[#  16]+0.050*[#   7]+0.050*[#  11]+
          +0.049*[#   3]+0.049*[#  15]+
    |psi|^2 = 0.993
==== e(   3) =   -12.82185 eV ==== 
     psi = 0.115*[#   5]+0.115*[#   9]+0.114*[#   1]+0.114*[#  13]+0.070*[#   4]+
          +0.070*[#  16]+0.069*[#   8]+0.069*[#  12]+0.064*[#   3]+0.064*[#  15]+
          +0.064*[#   7]+0.064*[#  11]+
    |psi|^2 = 0.992
==== e(   4) =   -12.75783 eV ==== 
     psi = 0.116*[#   1]+0.116*[#  13]+0.115*[#   5]+0.115*[#   9]+0.070*[#   8]+
          +0.070*[#  12]+0.069*[#   4]+0.069*[#  16]+0.064*[#   7]+0.064*[#  11]+
          +0.064*[#   3]+0.064*[#  15]+
    |psi|^2 = 0.994
==== e(   5) =   -10.98711 eV ==== 
     psi = 0.136*[#   7]+0.136*[#  11]+0.135*[#   3]+0.136*[#  15]+0.107*[#   4]+
          +0.107*[#  16]+0.107*[#   8]+0.107*[#  12]+0.003*[#   1]+0.003*[#   5]+
          +0.003*[#   9]+0.003*[#  13]+
    |psi|^2 = 0.980
==== e(   6) =   -10.94049 eV ==== 
     psi = 0.136*[#   3]+0.136*[#   7]+0.136*[#  15]+0.136*[#  11]+0.107*[#   4]+
          +0.107*[#   8]+0.107*[#  12]+0.107*[#  16]+0.003*[#   1]+0.003*[#   5]+
          +0.003*[#   9]+0.003*[#  13]+
    |psi|^2 = 0.984
==== e(   7) =    -1.14498 eV ==== 
     psi = 0.253*[#   6]+0.253*[#  10]+0.244*[#   2]+0.244*[#  14]+
    |psi|^2 = 0.994
==== e(   8) =    -0.61416 eV ==== 
     psi = 0.271*[#   2]+0.271*[#  14]+0.226*[#   6]+0.226*[#  10]+
    |psi|^2 = 0.995
==== e(   9) =    -0.36538 eV ==== 
     psi = 0.271*[#   6]+0.271*[#  10]+0.225*[#   2]+0.225*[#  14]+
    |psi|^2 = 0.992
==== e(  10) =     0.14749 eV ==== 
     psi = 0.252*[#   2]+0.252*[#  14]+0.244*[#   6]+0.244*[#  10]+
    |psi|^2 = 0.992
==== e(  11) =     9.33479 eV ==== 
     psi = 
    |psi|^2 = 0.001
==== e(  12) =    10.99862 eV ==== 
     psi = 
    |psi|^2 = 0.003

 k =   0.6400000000 -0.0000000000  0.0000000000
==== e(   1) =   -13.42729 eV ==== 
     psi = 0.122*[#   1]+0.122*[#   5]+0.122*[#   9]+0.122*[#  13]+0.089*[#   3]+
          +0.089*[#   7]+0.089*[#  11]+0.089*[#  15]+0.036*[#   4]+0.036*[#   8]+
          +0.036*[#  12]+0.036*[#  16]+
    |psi|^2 = 0.991
==== e(   2) =   -13.35924 eV ==== 
     psi = 0.123*[#   1]+0.123*[#   5]+0.123*[#   9]+0.123*[#  13]+0.089*[#   3]+
          +0.089*[#   7]+0.089*[#  11]+0.089*[#  15]+0.036*[#   4]+0.036*[#   8]+
          +0.036*[#  12]+0.036*[#  16]+
    |psi|^2 = 0.993
==== e(   3) =   -12.82153 eV ==== 
     psi = 0.115*[#   1]+0.115*[#   5]+0.115*[#   9]+0.115*[#  13]+0.072*[#   3]+
          +0.072*[#   7]+0.072*[#  11]+0.072*[#  15]+0.061*[#   4]+0.061*[#   8]+
          +0.061*[#  12]+0.061*[#  16]+
    |psi|^2 = 0.992
==== e(   4) =   -12.75727 eV ==== 
     psi = 0.115*[#   1]+0.115*[#   5]+0.115*[#   9]+0.115*[#  13]+0.072*[#   3]+
          +0.072*[#   7]+0.072*[#  11]+0.072*[#  15]+0.061*[#   4]+0.061*[#   8]+
          +0.061*[#  12]+0.061*[#  16]+
    |psi|^2 = 0.994
==== e(   5) =   -10.98735 eV ==== 
     psi = 0.150*[#   4]+0.150*[#   8]+0.150*[#  12]+0.150*[#  16]+0.092*[#   3]+
          +0.092*[#   7]+0.092*[#  11]+0.092*[#  15]+0.003*[#   1]+0.003*[#   5]+
          +0.003*[#   9]+0.003*[#  13]+
    |psi|^2 = 0.980
==== e(   6) =   -10.94066 eV ==== 
     psi = 0.150*[#   4]+0.150*[#   8]+0.150*[#  12]+0.150*[#  16]+0.093*[#   3]+
          +0.093*[#   7]+0.093*[#  11]+0.093*[#  15]+0.003*[#   1]+0.003*[#   5]+
          +0.003*[#   9]+0.003*[#  13]+
    |psi|^2 = 0.984
==== e(   7) =    -1.14507 eV ==== 
     psi = 0.249*[#   2]+0.249*[#   6]+0.249*[#  10]+0.249*[#  14]+
    |psi|^2 = 0.994
==== e(   8) =    -0.61450 eV ==== 
     psi = 0.249*[#   2]+0.249*[#   6]+0.249*[#  10]+0.249*[#  14]+
    |psi|^2 = 0.995
==== e(   9) =    -0.36627 eV ==== 
     psi = 0.248*[#   2]+0.248*[#   6]+0.248*[#  10]+0.248*[#  14]+
    |psi|^2 = 0.992
==== e(  10) =     0.14895 eV ==== 
     psi = 0.248*[#   2]+0.248*[#   6]+0.248*[#  10]+0.248*[#  14]+
    |psi|^2 = 0.992
==== e(  11) =     9.33466 eV ==== 
     psi = 
    |psi|^2 = 0.001
==== e(  12) =    10.99843 eV ==== 
     psi = 
    |psi|^2 = 0.003

Lowdin Charges: 

     Atom #   1: total charge =   3.9572, s =  0.9179, p =  3.0392, 
                 spin up      =   1.9786, s =  0.4590, 
                 spin up      =   1.9786, p =  1.5196, pz=  0.4945, px=  0.5126, py=  0.5126, 
                 spin down    =   1.9786, s =  0.4590, 
                 spin down    =   1.9786, p =  1.5196, pz=  0.4945, px=  0.5126, py=  0.5126, 
                 polarization =   0.0000, s =  0.0000, p =  0.0000, 
     Atom #   2: total charge =   3.9572, s =  0.9179, p =  3.0392, 
                 spin up      =   1.9786, s =  0.4590, 
                 spin up      =   1.9786, p =  1.5196, pz=  0.4945, px=  0.5126, py=  0.5126, 
                 spin down    =   1.9786, s =  0.4590, 
                 spin down    =   1.9786, p =  1.5196, pz=  0.4945, px=  0.5126, py=  0.5126, 
                 polarization =  -0.0000, s =  0.0000, p = -0.0000, 
     Atom #   3: total charge =   3.9572, s =  0.9179, p =  3.0392, 
                 spin up      =   1.9786, s =  0.4590, 
                 spin up      =   1.9786, p =  1.5196, pz=  0.4945, px=  0.5126, py=  0.5126, 
                 spin down    =   1.9786, s =  0.4590, 
                 spin down    =   1.9786, p =  1.5196, pz=  0.4945, px=  0.5126, py=  0.5126, 
                 polarization =  -0.0000, s = -0.0000, p = -0.0000, 
     Atom #   4: total charge =   3.9572, s =  0.9179, p =  3.0392, 
                 spin up      =   1.9786, s =  0.4590, 
                 spin up      =   1.9786, p =  1.5196, pz=  0.4945, px=  0.5126, py=  0.5126, 
                 spin down    =   1.9786, s =  0.4590, 
                 spin down    =   1.9786, p =  1.5196, pz=  0.4945, px=  0.5126, py=  0.5126, 
                 polarization =   0.0000, s =  0.0000, p =  0.0000, 
     Spilling Parameter:   0.0107
