
     Program PWSCF v.5.1 starts on  1May2020 at  7:10:22 

     This program is part of the open-source Quantum ESPRESSO suite
     for quantum simulation of materials; please cite
         "P. Giannozzi et al., J. Phys.:Condens. Matter 21 395502 (2009);
          URL http://www.quantum-espresso.org", 
     in publications or presentations arising from this work. More details at
     http://www.quantum-espresso.org/quote

     Parallel version (MPI), running on     1 processors
     Waiting for input...
     Reading input from standard input

     Current dimensions of program PWSCF are:
     Max number of different atomic species (ntypx) = 10
     Max number of k-points (npk) =  40000
     Max angular momentum in pseudopotentials (lmaxx) =  3

     Atomic positions and unit cell read from directory:
     ../tmp/g.dos1.save/


     IMPORTANT: XC functional enforced from input :
     Exchange-correlation      = PBE ( 1  4  3  4 0)
     Any further DFT definition will be discarded
     Please, verify this is what you really want

               file C.pbe-rrkjus.UPF: wavefunction(s)  2S 2P renormalized

     Subspace diagonalization in iterative solution of the eigenvalue problem:
     a serial algorithm will be used


     G-vector sticks info
     --------------------
     sticks:   dense  smooth     PW     G-vecs:    dense   smooth      PW
     Sum         595     241     85                96043    24369    4587

     Generating pointlists ...
     new r_m :   0.2381 (alat units)  1.1104 (a.u.) for type    1


     bravais-lattice index     =           12
     lattice parameter (alat)  =       4.6627  a.u.
     unit-cell volume          =     711.6007 (a.u.)^3
     number of atoms/cell      =            4
     number of atomic types    =            1
     number of electrons       =        16.00
     number of Kohn-Sham states=           12
     kinetic-energy cutoff     =      40.0000  Ry
     charge density cutoff     =     400.0000  Ry
     Exchange-correlation      = PBE ( 1  4  3  4 0)

     celldm(1)=   4.662710  celldm(2)=   1.000000  celldm(3)=   8.105698
     celldm(4)=  -0.500000  celldm(5)=   0.000000  celldm(6)=   0.000000

     crystal axes: (cart. coord. in units of alat)
               a(1) = (   1.000000   0.000000   0.000000 )  
               a(2) = (  -0.500000   0.866025   0.000000 )  
               a(3) = (   0.000000   0.000000   8.105698 )  

     reciprocal axes: (cart. coord. in units 2 pi/alat)
               b(1) = (  1.000000  0.577350 -0.000000 )  
               b(2) = (  0.000000  1.154701  0.000000 )  
               b(3) = (  0.000000 -0.000000  0.123370 )  


     PseudoPot. # 1 for C  read from file:
     ../pseudo/C.pbe-rrkjus.UPF
     MD5 check sum: 00fb224312de0c5b6853bd333518df6f
     Pseudo is Ultrasoft, Zval =  4.0
     Generated by new atomic code, or converted to UPF format
     Using radial grid of  627 points,  4 beta functions with: 
                l(1) =   0
                l(2) =   0
                l(3) =   1
                l(4) =   1
     Q(r) pseudized with 0 coefficients 


     atomic species   valence    mass     pseudopotential
        C              4.00    12.01100     C ( 1.00)

     Starting magnetic structure 
     atomic species   magnetization
        C           -0.500

     No symmetry found
          (note:  3 additional sym.ops. were found but ignored
           their fractional translations are incommensurate with FFT grid)

                                    s                        frac. trans.

      isym =  1     identity                                     

 cryst.   s( 1) = (     1          0          0      )
                  (     0          1          0      )
                  (     0          0          1      )

 cart.    s( 1) = (  1.0000000  0.0000000  0.0000000 )
                  (  0.0000000  1.0000000  0.0000000 )
                  (  0.0000000  0.0000000  1.0000000 )


     point group C_1 (1)    
     there are  1 classes
     the character table:

       E    
A      1.00

     the symmetry operations in each class:
     E        1

   Cartesian axes

     site n.     atom                  positions (alat units)
         1           C   tau(   1) = (   0.0000000   0.0000000   2.0264246  )
         2           C   tau(   2) = (   0.0000000   0.5773284   2.0264246  )
         3           C   tau(   3) = (   0.9726838   0.0000000   3.4449218  )
         4           C   tau(   4) = (   0.9726838   0.5773284   3.4449218  )

   Crystallographic axes

     site n.     atom                  positions (cryst. coord.)
         1           C   tau(   1) = (  0.0000000  0.0000000  0.2500000  )
         2           C   tau(   2) = (  0.3333207  0.6666414  0.2500000  )
         3           C   tau(   3) = (  0.9726838  0.0000000  0.4250000  )
         4           C   tau(   4) = (  1.3060045  0.6666414  0.4250000  )

     number of k points=   580 (tetrahedron method)
                       cart. coord. in units 2pi/alat
        k(    1) = (   0.0000000   0.0000000   0.0000000), wk =   0.0017361
        k(    2) = (   0.0000000   0.0481125   0.0000000), wk =   0.0034722
        k(    3) = (   0.0000000   0.0962250   0.0000000), wk =   0.0034722
        k(    4) = (   0.0000000   0.1443376   0.0000000), wk =   0.0034722
        k(    5) = (   0.0000000   0.1924501   0.0000000), wk =   0.0034722
        k(    6) = (   0.0000000   0.2405626   0.0000000), wk =   0.0034722
        k(    7) = (   0.0000000   0.2886751   0.0000000), wk =   0.0034722
        k(    8) = (   0.0000000   0.3367877   0.0000000), wk =   0.0034722
        k(    9) = (   0.0000000   0.3849002   0.0000000), wk =   0.0034722
        k(   10) = (   0.0000000   0.4330127   0.0000000), wk =   0.0034722
        k(   11) = (   0.0000000   0.4811252   0.0000000), wk =   0.0034722
        k(   12) = (   0.0000000   0.5292377   0.0000000), wk =   0.0034722
        k(   13) = (   0.0000000  -0.5773503   0.0000000), wk =   0.0017361
        k(   14) = (   0.0416667   0.0721688   0.0000000), wk =   0.0034722
        k(   15) = (   0.0416667   0.1202813   0.0000000), wk =   0.0034722
        k(   16) = (   0.0416667   0.1683938   0.0000000), wk =   0.0034722
        k(   17) = (   0.0416667   0.2165064   0.0000000), wk =   0.0034722
        k(   18) = (   0.0416667   0.2646189   0.0000000), wk =   0.0034722
        k(   19) = (   0.0416667   0.3127314   0.0000000), wk =   0.0034722
        k(   20) = (   0.0416667   0.3608439   0.0000000), wk =   0.0034722
        k(   21) = (   0.0416667   0.4089564   0.0000000), wk =   0.0034722
        k(   22) = (   0.0416667   0.4570690   0.0000000), wk =   0.0034722
        k(   23) = (   0.0416667   0.5051815   0.0000000), wk =   0.0034722
        k(   24) = (   0.0416667   0.5532940   0.0000000), wk =   0.0034722
        k(   25) = (   0.0833333   0.1443376   0.0000000), wk =   0.0034722
        k(   26) = (   0.0833333   0.1924501   0.0000000), wk =   0.0034722
        k(   27) = (   0.0833333   0.2405626   0.0000000), wk =   0.0034722
        k(   28) = (   0.0833333   0.2886751   0.0000000), wk =   0.0034722
        k(   29) = (   0.0833333   0.3367877   0.0000000), wk =   0.0034722
        k(   30) = (   0.0833333   0.3849002   0.0000000), wk =   0.0034722
        k(   31) = (   0.0833333   0.4330127   0.0000000), wk =   0.0034722
        k(   32) = (   0.0833333   0.4811252   0.0000000), wk =   0.0034722
        k(   33) = (   0.0833333   0.5292377   0.0000000), wk =   0.0034722
        k(   34) = (   0.0833333   0.5773503   0.0000000), wk =   0.0034722
        k(   35) = (   0.1250000   0.2165064   0.0000000), wk =   0.0034722
        k(   36) = (   0.1250000   0.2646189   0.0000000), wk =   0.0034722
        k(   37) = (   0.1250000   0.3127314   0.0000000), wk =   0.0034722
        k(   38) = (   0.1250000   0.3608439   0.0000000), wk =   0.0034722
        k(   39) = (   0.1250000   0.4089564   0.0000000), wk =   0.0034722
        k(   40) = (   0.1250000   0.4570690   0.0000000), wk =   0.0034722
        k(   41) = (   0.1250000   0.5051815   0.0000000), wk =   0.0034722
        k(   42) = (   0.1250000   0.5532940   0.0000000), wk =   0.0034722
        k(   43) = (   0.1666667   0.2886751   0.0000000), wk =   0.0034722
        k(   44) = (   0.1666667   0.3367877   0.0000000), wk =   0.0034722
        k(   45) = (   0.1666667   0.3849002   0.0000000), wk =   0.0034722
        k(   46) = (   0.1666667   0.4330127   0.0000000), wk =   0.0034722
        k(   47) = (   0.1666667   0.4811252   0.0000000), wk =   0.0034722
        k(   48) = (   0.1666667   0.5292377   0.0000000), wk =   0.0034722
        k(   49) = (   0.1666667   0.5773503   0.0000000), wk =   0.0034722
        k(   50) = (   0.2083333   0.3608439   0.0000000), wk =   0.0034722
        k(   51) = (   0.2083333   0.4089564   0.0000000), wk =   0.0034722
        k(   52) = (   0.2083333   0.4570690   0.0000000), wk =   0.0034722
        k(   53) = (   0.2083333   0.5051815   0.0000000), wk =   0.0034722
        k(   54) = (   0.2083333   0.5532940   0.0000000), wk =   0.0034722
        k(   55) = (   0.2500000   0.4330127   0.0000000), wk =   0.0034722
        k(   56) = (   0.2500000   0.4811252   0.0000000), wk =   0.0034722
        k(   57) = (   0.2500000   0.5292377   0.0000000), wk =   0.0034722
        k(   58) = (   0.2500000   0.5773503   0.0000000), wk =   0.0034722
        k(   59) = (   0.2916667   0.5051815   0.0000000), wk =   0.0034722
        k(   60) = (   0.2916667   0.5532940   0.0000000), wk =   0.0034722
        k(   61) = (   0.3333333   0.5773503   0.0000000), wk =   0.0034722
        k(   62) = (  -0.0416667   0.0240563   0.0000000), wk =   0.0034722
        k(   63) = (   0.0416667   0.0240563   0.0000000), wk =   0.0034722
        k(   64) = (  -0.0833333   0.0481125   0.0000000), wk =   0.0034722
        k(   65) = (   0.0833333   0.0481125   0.0000000), wk =   0.0034722
        k(   66) = (  -0.1250000   0.0721688   0.0000000), wk =   0.0034722
        k(   67) = (   0.1250000   0.0721688   0.0000000), wk =   0.0034722
        k(   68) = (  -0.1666667   0.0962250   0.0000000), wk =   0.0034722
        k(   69) = (   0.1666667   0.0962250   0.0000000), wk =   0.0034722
        k(   70) = (  -0.2083333   0.1202813   0.0000000), wk =   0.0034722
        k(   71) = (   0.2083333   0.1202813   0.0000000), wk =   0.0034722
        k(   72) = (  -0.2500000   0.1443376   0.0000000), wk =   0.0034722
        k(   73) = (   0.2500000   0.1443376   0.0000000), wk =   0.0034722
        k(   74) = (  -0.2916667   0.1683938   0.0000000), wk =   0.0034722
        k(   75) = (   0.2916667   0.1683938   0.0000000), wk =   0.0034722
        k(   76) = (  -0.3333333   0.1924501   0.0000000), wk =   0.0034722
        k(   77) = (   0.3333333   0.1924501   0.0000000), wk =   0.0034722
        k(   78) = (  -0.3750000   0.2165064   0.0000000), wk =   0.0034722
        k(   79) = (   0.3750000   0.2165064   0.0000000), wk =   0.0034722
        k(   80) = (  -0.4166667   0.2405626   0.0000000), wk =   0.0034722
        k(   81) = (   0.4166667   0.2405626   0.0000000), wk =   0.0034722
        k(   82) = (  -0.4583333   0.2646189   0.0000000), wk =   0.0034722
        k(   83) = (   0.4583333   0.2646189   0.0000000), wk =   0.0034722
        k(   84) = (   0.5000000  -0.2886751   0.0000000), wk =   0.0017361
        k(   85) = (  -0.5000000  -0.2886751   0.0000000), wk =   0.0017361
        k(   86) = (  -0.0416667   0.0721688   0.0000000), wk =   0.0034722
        k(   87) = (   0.0833333  -0.0000000   0.0000000), wk =   0.0034722
        k(   88) = (  -0.0416667   0.1202813   0.0000000), wk =   0.0034722
        k(   89) = (  -0.0833333   0.0962250   0.0000000), wk =   0.0034722
        k(   90) = (   0.1250000   0.0240563   0.0000000), wk =   0.0034722
        k(   91) = (  -0.0833333  -0.0962250   0.0000000), wk =   0.0034722
        k(   92) = (   0.1250000  -0.0240563   0.0000000), wk =   0.0034722
        k(   93) = (  -0.0416667   0.1683938   0.0000000), wk =   0.0034722
        k(   94) = (  -0.1250000   0.1202813   0.0000000), wk =   0.0034722
        k(   95) = (   0.1666667   0.0481125   0.0000000), wk =   0.0034722
        k(   96) = (  -0.1250000  -0.1202813   0.0000000), wk =   0.0034722
        k(   97) = (   0.1666667  -0.0481125   0.0000000), wk =   0.0034722
        k(   98) = (  -0.0416667   0.2165064   0.0000000), wk =   0.0034722
        k(   99) = (  -0.1666667   0.1443376   0.0000000), wk =   0.0034722
        k(  100) = (   0.2083333   0.0721688   0.0000000), wk =   0.0034722
        k(  101) = (  -0.1666667  -0.1443376   0.0000000), wk =   0.0034722
        k(  102) = (   0.2083333  -0.0721688   0.0000000), wk =   0.0034722
        k(  103) = (  -0.0416667   0.2646189   0.0000000), wk =   0.0034722
        k(  104) = (  -0.2083333   0.1683938   0.0000000), wk =   0.0034722
        k(  105) = (   0.2500000   0.0962250   0.0000000), wk =   0.0034722
        k(  106) = (  -0.2083333  -0.1683938   0.0000000), wk =   0.0034722
        k(  107) = (   0.2500000  -0.0962250   0.0000000), wk =   0.0034722
        k(  108) = (  -0.0416667   0.3127314   0.0000000), wk =   0.0034722
        k(  109) = (  -0.2500000   0.1924501   0.0000000), wk =   0.0034722
        k(  110) = (   0.2916667   0.1202813   0.0000000), wk =   0.0034722
        k(  111) = (  -0.2500000  -0.1924501   0.0000000), wk =   0.0034722
        k(  112) = (   0.2916667  -0.1202813   0.0000000), wk =   0.0034722
        k(  113) = (  -0.0416667   0.3608439   0.0000000), wk =   0.0034722
        k(  114) = (  -0.2916667   0.2165064   0.0000000), wk =   0.0034722
        k(  115) = (   0.3333333   0.1443376   0.0000000), wk =   0.0034722
        k(  116) = (  -0.2916667  -0.2165064   0.0000000), wk =   0.0034722
        k(  117) = (   0.3333333  -0.1443376   0.0000000), wk =   0.0034722
        k(  118) = (  -0.0416667   0.4089564   0.0000000), wk =   0.0034722
        k(  119) = (  -0.3333333   0.2405626   0.0000000), wk =   0.0034722
        k(  120) = (   0.3750000   0.1683938   0.0000000), wk =   0.0034722
        k(  121) = (  -0.3333333  -0.2405626   0.0000000), wk =   0.0034722
        k(  122) = (   0.3750000  -0.1683938   0.0000000), wk =   0.0034722
        k(  123) = (  -0.0416667   0.4570690   0.0000000), wk =   0.0034722
        k(  124) = (  -0.3750000   0.2646189   0.0000000), wk =   0.0034722
        k(  125) = (   0.4166667   0.1924501   0.0000000), wk =   0.0034722
        k(  126) = (  -0.3750000  -0.2646189   0.0000000), wk =   0.0034722
        k(  127) = (   0.4166667  -0.1924501   0.0000000), wk =   0.0034722
        k(  128) = (  -0.0416667   0.5051815   0.0000000), wk =   0.0034722
        k(  129) = (  -0.4166667   0.2886751   0.0000000), wk =   0.0034722
        k(  130) = (   0.4583333   0.2165064   0.0000000), wk =   0.0034722
        k(  131) = (  -0.4166667  -0.2886751   0.0000000), wk =   0.0034722
        k(  132) = (   0.4583333  -0.2165064   0.0000000), wk =   0.0034722
        k(  133) = (  -0.0416667   0.5532940   0.0000000), wk =   0.0034722
        k(  134) = (  -0.4583333   0.3127314   0.0000000), wk =   0.0034722
        k(  135) = (   0.5000000   0.2405626   0.0000000), wk =   0.0034722
        k(  136) = (  -0.4583333  -0.3127314   0.0000000), wk =   0.0034722
        k(  137) = (   0.5000000  -0.2405626   0.0000000), wk =   0.0034722
        k(  138) = (  -0.0833333   0.1443376   0.0000000), wk =   0.0034722
        k(  139) = (   0.1666667  -0.0000000   0.0000000), wk =   0.0034722
        k(  140) = (  -0.0833333   0.1924501   0.0000000), wk =   0.0034722
        k(  141) = (  -0.1250000   0.1683938   0.0000000), wk =   0.0034722
        k(  142) = (   0.2083333   0.0240563   0.0000000), wk =   0.0034722
        k(  143) = (  -0.1250000  -0.1683938   0.0000000), wk =   0.0034722
        k(  144) = (   0.2083333  -0.0240563   0.0000000), wk =   0.0034722
        k(  145) = (  -0.0833333   0.2405626   0.0000000), wk =   0.0034722
        k(  146) = (  -0.1666667   0.1924501   0.0000000), wk =   0.0034722
        k(  147) = (   0.2500000   0.0481125   0.0000000), wk =   0.0034722
        k(  148) = (  -0.1666667  -0.1924501   0.0000000), wk =   0.0034722
        k(  149) = (   0.2500000  -0.0481125   0.0000000), wk =   0.0034722
        k(  150) = (  -0.0833333   0.2886751   0.0000000), wk =   0.0034722
        k(  151) = (  -0.2083333   0.2165064   0.0000000), wk =   0.0034722
        k(  152) = (   0.2916667   0.0721688   0.0000000), wk =   0.0034722
        k(  153) = (  -0.2083333  -0.2165064   0.0000000), wk =   0.0034722
        k(  154) = (   0.2916667  -0.0721688   0.0000000), wk =   0.0034722
        k(  155) = (  -0.0833333   0.3367877   0.0000000), wk =   0.0034722
        k(  156) = (  -0.2500000   0.2405626   0.0000000), wk =   0.0034722
        k(  157) = (   0.3333333   0.0962250   0.0000000), wk =   0.0034722
        k(  158) = (  -0.2500000  -0.2405626   0.0000000), wk =   0.0034722
        k(  159) = (   0.3333333  -0.0962250   0.0000000), wk =   0.0034722
        k(  160) = (  -0.0833333   0.3849002   0.0000000), wk =   0.0034722
        k(  161) = (  -0.2916667   0.2646189   0.0000000), wk =   0.0034722
        k(  162) = (   0.3750000   0.1202813   0.0000000), wk =   0.0034722
        k(  163) = (  -0.2916667  -0.2646189   0.0000000), wk =   0.0034722
        k(  164) = (   0.3750000  -0.1202813   0.0000000), wk =   0.0034722
        k(  165) = (  -0.0833333   0.4330127   0.0000000), wk =   0.0034722
        k(  166) = (  -0.3333333   0.2886751   0.0000000), wk =   0.0034722
        k(  167) = (   0.4166667   0.1443376   0.0000000), wk =   0.0034722
        k(  168) = (  -0.3333333  -0.2886751   0.0000000), wk =   0.0034722
        k(  169) = (   0.4166667  -0.1443376   0.0000000), wk =   0.0034722
        k(  170) = (  -0.0833333   0.4811252   0.0000000), wk =   0.0034722
        k(  171) = (  -0.3750000   0.3127314   0.0000000), wk =   0.0034722
        k(  172) = (   0.4583333   0.1683938   0.0000000), wk =   0.0034722
        k(  173) = (  -0.3750000  -0.3127314   0.0000000), wk =   0.0034722
        k(  174) = (   0.4583333  -0.1683938   0.0000000), wk =   0.0034722
        k(  175) = (  -0.0833333   0.5292377   0.0000000), wk =   0.0034722
        k(  176) = (  -0.4166667   0.3367877   0.0000000), wk =   0.0034722
        k(  177) = (   0.5000000   0.1924501   0.0000000), wk =   0.0034722
        k(  178) = (  -0.4166667  -0.3367877   0.0000000), wk =   0.0034722
        k(  179) = (   0.5000000  -0.1924501   0.0000000), wk =   0.0034722
        k(  180) = (  -0.4583333   0.3608439   0.0000000), wk =   0.0034722
        k(  181) = (   0.5416667   0.2165064   0.0000000), wk =   0.0034722
        k(  182) = (  -0.1250000   0.2165064   0.0000000), wk =   0.0034722
        k(  183) = (   0.2500000  -0.0000000   0.0000000), wk =   0.0034722
        k(  184) = (  -0.1250000   0.2646189   0.0000000), wk =   0.0034722
        k(  185) = (  -0.1666667   0.2405626   0.0000000), wk =   0.0034722
        k(  186) = (   0.2916667   0.0240563   0.0000000), wk =   0.0034722
        k(  187) = (  -0.1666667  -0.2405626   0.0000000), wk =   0.0034722
        k(  188) = (   0.2916667  -0.0240563   0.0000000), wk =   0.0034722
        k(  189) = (  -0.1250000   0.3127314   0.0000000), wk =   0.0034722
        k(  190) = (  -0.2083333   0.2646189   0.0000000), wk =   0.0034722
        k(  191) = (   0.3333333   0.0481125   0.0000000), wk =   0.0034722
        k(  192) = (  -0.2083333  -0.2646189   0.0000000), wk =   0.0034722
        k(  193) = (   0.3333333  -0.0481125   0.0000000), wk =   0.0034722
        k(  194) = (  -0.1250000   0.3608439   0.0000000), wk =   0.0034722
        k(  195) = (  -0.2500000   0.2886751   0.0000000), wk =   0.0034722
        k(  196) = (   0.3750000   0.0721688   0.0000000), wk =   0.0034722
        k(  197) = (  -0.2500000  -0.2886751   0.0000000), wk =   0.0034722
        k(  198) = (   0.3750000  -0.0721688   0.0000000), wk =   0.0034722
        k(  199) = (  -0.1250000   0.4089564   0.0000000), wk =   0.0034722
        k(  200) = (  -0.2916667   0.3127314   0.0000000), wk =   0.0034722
        k(  201) = (   0.4166667   0.0962250   0.0000000), wk =   0.0034722
        k(  202) = (  -0.2916667  -0.3127314   0.0000000), wk =   0.0034722
        k(  203) = (   0.4166667  -0.0962250   0.0000000), wk =   0.0034722
        k(  204) = (  -0.1250000   0.4570690   0.0000000), wk =   0.0034722
        k(  205) = (  -0.3333333   0.3367877   0.0000000), wk =   0.0034722
        k(  206) = (   0.4583333   0.1202813   0.0000000), wk =   0.0034722
        k(  207) = (  -0.3333333  -0.3367877   0.0000000), wk =   0.0034722
        k(  208) = (   0.4583333  -0.1202813   0.0000000), wk =   0.0034722
        k(  209) = (  -0.1250000   0.5051815   0.0000000), wk =   0.0034722
        k(  210) = (  -0.3750000   0.3608439   0.0000000), wk =   0.0034722
        k(  211) = (   0.5000000   0.1443376   0.0000000), wk =   0.0034722
        k(  212) = (  -0.3750000  -0.3608439   0.0000000), wk =   0.0034722
        k(  213) = (   0.5000000  -0.1443376   0.0000000), wk =   0.0034722
        k(  214) = (  -0.1250000   0.5532940   0.0000000), wk =   0.0034722
        k(  215) = (  -0.4166667   0.3849002   0.0000000), wk =   0.0034722
        k(  216) = (   0.5416667   0.1683938   0.0000000), wk =   0.0034722
        k(  217) = (  -0.4166667  -0.3849002   0.0000000), wk =   0.0034722
        k(  218) = (   0.5416667  -0.1683938   0.0000000), wk =   0.0034722
        k(  219) = (  -0.1666667   0.2886751   0.0000000), wk =   0.0034722
        k(  220) = (   0.3333333  -0.0000000   0.0000000), wk =   0.0034722
        k(  221) = (  -0.1666667   0.3367877   0.0000000), wk =   0.0034722
        k(  222) = (  -0.2083333   0.3127314   0.0000000), wk =   0.0034722
        k(  223) = (   0.3750000   0.0240563   0.0000000), wk =   0.0034722
        k(  224) = (  -0.2083333  -0.3127314   0.0000000), wk =   0.0034722
        k(  225) = (   0.3750000  -0.0240563   0.0000000), wk =   0.0034722
        k(  226) = (  -0.1666667   0.3849002   0.0000000), wk =   0.0034722
        k(  227) = (  -0.2500000   0.3367877   0.0000000), wk =   0.0034722
        k(  228) = (   0.4166667   0.0481125   0.0000000), wk =   0.0034722
        k(  229) = (  -0.2500000  -0.3367877   0.0000000), wk =   0.0034722
        k(  230) = (   0.4166667  -0.0481125   0.0000000), wk =   0.0034722
        k(  231) = (  -0.1666667   0.4330127   0.0000000), wk =   0.0034722
        k(  232) = (  -0.2916667   0.3608439   0.0000000), wk =   0.0034722
        k(  233) = (   0.4583333   0.0721688   0.0000000), wk =   0.0034722
        k(  234) = (  -0.2916667  -0.3608439   0.0000000), wk =   0.0034722
        k(  235) = (   0.4583333  -0.0721688   0.0000000), wk =   0.0034722
        k(  236) = (  -0.1666667   0.4811252   0.0000000), wk =   0.0034722
        k(  237) = (  -0.3333333   0.3849002   0.0000000), wk =   0.0034722
        k(  238) = (   0.5000000   0.0962250   0.0000000), wk =   0.0034722
        k(  239) = (  -0.3333333  -0.3849002   0.0000000), wk =   0.0034722
        k(  240) = (   0.5000000  -0.0962250   0.0000000), wk =   0.0034722
        k(  241) = (  -0.1666667   0.5292377   0.0000000), wk =   0.0034722
        k(  242) = (  -0.3750000   0.4089564   0.0000000), wk =   0.0034722
        k(  243) = (   0.5416667   0.1202813   0.0000000), wk =   0.0034722
        k(  244) = (  -0.3750000  -0.4089564   0.0000000), wk =   0.0034722
        k(  245) = (   0.5416667  -0.1202813   0.0000000), wk =   0.0034722
        k(  246) = (  -0.4166667   0.4330127   0.0000000), wk =   0.0034722
        k(  247) = (   0.5833333   0.1443376   0.0000000), wk =   0.0034722
        k(  248) = (  -0.2083333   0.3608439   0.0000000), wk =   0.0034722
        k(  249) = (   0.4166667  -0.0000000   0.0000000), wk =   0.0034722
        k(  250) = (  -0.2083333   0.4089564   0.0000000), wk =   0.0034722
        k(  251) = (  -0.2500000   0.3849002   0.0000000), wk =   0.0034722
        k(  252) = (   0.4583333   0.0240563   0.0000000), wk =   0.0034722
        k(  253) = (  -0.2500000  -0.3849002   0.0000000), wk =   0.0034722
        k(  254) = (   0.4583333  -0.0240563   0.0000000), wk =   0.0034722
        k(  255) = (  -0.2083333   0.4570690   0.0000000), wk =   0.0034722
        k(  256) = (  -0.2916667   0.4089564   0.0000000), wk =   0.0034722
        k(  257) = (   0.5000000   0.0481125   0.0000000), wk =   0.0034722
        k(  258) = (  -0.2916667  -0.4089564   0.0000000), wk =   0.0034722
        k(  259) = (   0.5000000  -0.0481125   0.0000000), wk =   0.0034722
        k(  260) = (  -0.2083333   0.5051815   0.0000000), wk =   0.0034722
        k(  261) = (  -0.3333333   0.4330127   0.0000000), wk =   0.0034722
        k(  262) = (   0.5416667   0.0721688   0.0000000), wk =   0.0034722
        k(  263) = (  -0.3333333  -0.4330127   0.0000000), wk =   0.0034722
        k(  264) = (   0.5416667  -0.0721688   0.0000000), wk =   0.0034722
        k(  265) = (  -0.2083333   0.5532940   0.0000000), wk =   0.0034722
        k(  266) = (  -0.3750000   0.4570690   0.0000000), wk =   0.0034722
        k(  267) = (   0.5833333   0.0962250   0.0000000), wk =   0.0034722
        k(  268) = (  -0.3750000  -0.4570690   0.0000000), wk =   0.0034722
        k(  269) = (   0.5833333  -0.0962250   0.0000000), wk =   0.0034722
        k(  270) = (  -0.2500000   0.4330127   0.0000000), wk =   0.0034722
        k(  271) = (   0.5000000  -0.0000000   0.0000000), wk =   0.0034722
        k(  272) = (  -0.2500000   0.4811252   0.0000000), wk =   0.0034722
        k(  273) = (  -0.2916667   0.4570690   0.0000000), wk =   0.0034722
        k(  274) = (   0.5416667   0.0240563   0.0000000), wk =   0.0034722
        k(  275) = (  -0.2916667  -0.4570690   0.0000000), wk =   0.0034722
        k(  276) = (   0.5416667  -0.0240563   0.0000000), wk =   0.0034722
        k(  277) = (  -0.2500000   0.5292377   0.0000000), wk =   0.0034722
        k(  278) = (  -0.3333333   0.4811252   0.0000000), wk =   0.0034722
        k(  279) = (   0.5833333   0.0481125   0.0000000), wk =   0.0034722
        k(  280) = (  -0.3333333  -0.4811252   0.0000000), wk =   0.0034722
        k(  281) = (   0.5833333  -0.0481125   0.0000000), wk =   0.0034722
        k(  282) = (  -0.3750000   0.5051815   0.0000000), wk =   0.0034722
        k(  283) = (   0.6250000   0.0721688   0.0000000), wk =   0.0034722
        k(  284) = (  -0.2916667   0.5051815   0.0000000), wk =   0.0034722
        k(  285) = (   0.5833333  -0.0000000   0.0000000), wk =   0.0034722
        k(  286) = (  -0.2916667   0.5532940   0.0000000), wk =   0.0034722
        k(  287) = (  -0.3333333   0.5292377   0.0000000), wk =   0.0034722
        k(  288) = (   0.6250000   0.0240563   0.0000000), wk =   0.0034722
        k(  289) = (  -0.3333333  -0.5292377   0.0000000), wk =   0.0034722
        k(  290) = (   0.6250000  -0.0240563   0.0000000), wk =   0.0034722
        k(  291) = (   0.0000000   0.0000000   0.0000000), wk =   0.0017361
        k(  292) = (   0.0000000   0.0481125   0.0000000), wk =   0.0034722
        k(  293) = (   0.0000000   0.0962250   0.0000000), wk =   0.0034722
        k(  294) = (   0.0000000   0.1443376   0.0000000), wk =   0.0034722
        k(  295) = (   0.0000000   0.1924501   0.0000000), wk =   0.0034722
        k(  296) = (   0.0000000   0.2405626   0.0000000), wk =   0.0034722
        k(  297) = (   0.0000000   0.2886751   0.0000000), wk =   0.0034722
        k(  298) = (   0.0000000   0.3367877   0.0000000), wk =   0.0034722
        k(  299) = (   0.0000000   0.3849002   0.0000000), wk =   0.0034722
        k(  300) = (   0.0000000   0.4330127   0.0000000), wk =   0.0034722
        k(  301) = (   0.0000000   0.4811252   0.0000000), wk =   0.0034722
        k(  302) = (   0.0000000   0.5292377   0.0000000), wk =   0.0034722
        k(  303) = (   0.0000000  -0.5773503   0.0000000), wk =   0.0017361
        k(  304) = (   0.0416667   0.0721688   0.0000000), wk =   0.0034722
        k(  305) = (   0.0416667   0.1202813   0.0000000), wk =   0.0034722
        k(  306) = (   0.0416667   0.1683938   0.0000000), wk =   0.0034722
        k(  307) = (   0.0416667   0.2165064   0.0000000), wk =   0.0034722
        k(  308) = (   0.0416667   0.2646189   0.0000000), wk =   0.0034722
        k(  309) = (   0.0416667   0.3127314   0.0000000), wk =   0.0034722
        k(  310) = (   0.0416667   0.3608439   0.0000000), wk =   0.0034722
        k(  311) = (   0.0416667   0.4089564   0.0000000), wk =   0.0034722
        k(  312) = (   0.0416667   0.4570690   0.0000000), wk =   0.0034722
        k(  313) = (   0.0416667   0.5051815   0.0000000), wk =   0.0034722
        k(  314) = (   0.0416667   0.5532940   0.0000000), wk =   0.0034722
        k(  315) = (   0.0833333   0.1443376   0.0000000), wk =   0.0034722
        k(  316) = (   0.0833333   0.1924501   0.0000000), wk =   0.0034722
        k(  317) = (   0.0833333   0.2405626   0.0000000), wk =   0.0034722
        k(  318) = (   0.0833333   0.2886751   0.0000000), wk =   0.0034722
        k(  319) = (   0.0833333   0.3367877   0.0000000), wk =   0.0034722
        k(  320) = (   0.0833333   0.3849002   0.0000000), wk =   0.0034722
        k(  321) = (   0.0833333   0.4330127   0.0000000), wk =   0.0034722
        k(  322) = (   0.0833333   0.4811252   0.0000000), wk =   0.0034722
        k(  323) = (   0.0833333   0.5292377   0.0000000), wk =   0.0034722
        k(  324) = (   0.0833333   0.5773503   0.0000000), wk =   0.0034722
        k(  325) = (   0.1250000   0.2165064   0.0000000), wk =   0.0034722
        k(  326) = (   0.1250000   0.2646189   0.0000000), wk =   0.0034722
        k(  327) = (   0.1250000   0.3127314   0.0000000), wk =   0.0034722
        k(  328) = (   0.1250000   0.3608439   0.0000000), wk =   0.0034722
        k(  329) = (   0.1250000   0.4089564   0.0000000), wk =   0.0034722
        k(  330) = (   0.1250000   0.4570690   0.0000000), wk =   0.0034722
        k(  331) = (   0.1250000   0.5051815   0.0000000), wk =   0.0034722
        k(  332) = (   0.1250000   0.5532940   0.0000000), wk =   0.0034722
        k(  333) = (   0.1666667   0.2886751   0.0000000), wk =   0.0034722
        k(  334) = (   0.1666667   0.3367877   0.0000000), wk =   0.0034722
        k(  335) = (   0.1666667   0.3849002   0.0000000), wk =   0.0034722
        k(  336) = (   0.1666667   0.4330127   0.0000000), wk =   0.0034722
        k(  337) = (   0.1666667   0.4811252   0.0000000), wk =   0.0034722
        k(  338) = (   0.1666667   0.5292377   0.0000000), wk =   0.0034722
        k(  339) = (   0.1666667   0.5773503   0.0000000), wk =   0.0034722
        k(  340) = (   0.2083333   0.3608439   0.0000000), wk =   0.0034722
        k(  341) = (   0.2083333   0.4089564   0.0000000), wk =   0.0034722
        k(  342) = (   0.2083333   0.4570690   0.0000000), wk =   0.0034722
        k(  343) = (   0.2083333   0.5051815   0.0000000), wk =   0.0034722
        k(  344) = (   0.2083333   0.5532940   0.0000000), wk =   0.0034722
        k(  345) = (   0.2500000   0.4330127   0.0000000), wk =   0.0034722
        k(  346) = (   0.2500000   0.4811252   0.0000000), wk =   0.0034722
        k(  347) = (   0.2500000   0.5292377   0.0000000), wk =   0.0034722
        k(  348) = (   0.2500000   0.5773503   0.0000000), wk =   0.0034722
        k(  349) = (   0.2916667   0.5051815   0.0000000), wk =   0.0034722
        k(  350) = (   0.2916667   0.5532940   0.0000000), wk =   0.0034722
        k(  351) = (   0.3333333   0.5773503   0.0000000), wk =   0.0034722
        k(  352) = (  -0.0416667   0.0240563   0.0000000), wk =   0.0034722
        k(  353) = (   0.0416667   0.0240563   0.0000000), wk =   0.0034722
        k(  354) = (  -0.0833333   0.0481125   0.0000000), wk =   0.0034722
        k(  355) = (   0.0833333   0.0481125   0.0000000), wk =   0.0034722
        k(  356) = (  -0.1250000   0.0721688   0.0000000), wk =   0.0034722
        k(  357) = (   0.1250000   0.0721688   0.0000000), wk =   0.0034722
        k(  358) = (  -0.1666667   0.0962250   0.0000000), wk =   0.0034722
        k(  359) = (   0.1666667   0.0962250   0.0000000), wk =   0.0034722
        k(  360) = (  -0.2083333   0.1202813   0.0000000), wk =   0.0034722
        k(  361) = (   0.2083333   0.1202813   0.0000000), wk =   0.0034722
        k(  362) = (  -0.2500000   0.1443376   0.0000000), wk =   0.0034722
        k(  363) = (   0.2500000   0.1443376   0.0000000), wk =   0.0034722
        k(  364) = (  -0.2916667   0.1683938   0.0000000), wk =   0.0034722
        k(  365) = (   0.2916667   0.1683938   0.0000000), wk =   0.0034722
        k(  366) = (  -0.3333333   0.1924501   0.0000000), wk =   0.0034722
        k(  367) = (   0.3333333   0.1924501   0.0000000), wk =   0.0034722
        k(  368) = (  -0.3750000   0.2165064   0.0000000), wk =   0.0034722
        k(  369) = (   0.3750000   0.2165064   0.0000000), wk =   0.0034722
        k(  370) = (  -0.4166667   0.2405626   0.0000000), wk =   0.0034722
        k(  371) = (   0.4166667   0.2405626   0.0000000), wk =   0.0034722
        k(  372) = (  -0.4583333   0.2646189   0.0000000), wk =   0.0034722
        k(  373) = (   0.4583333   0.2646189   0.0000000), wk =   0.0034722
        k(  374) = (   0.5000000  -0.2886751   0.0000000), wk =   0.0017361
        k(  375) = (  -0.5000000  -0.2886751   0.0000000), wk =   0.0017361
        k(  376) = (  -0.0416667   0.0721688   0.0000000), wk =   0.0034722
        k(  377) = (   0.0833333  -0.0000000   0.0000000), wk =   0.0034722
        k(  378) = (  -0.0416667   0.1202813   0.0000000), wk =   0.0034722
        k(  379) = (  -0.0833333   0.0962250   0.0000000), wk =   0.0034722
        k(  380) = (   0.1250000   0.0240563   0.0000000), wk =   0.0034722
        k(  381) = (  -0.0833333  -0.0962250   0.0000000), wk =   0.0034722
        k(  382) = (   0.1250000  -0.0240563   0.0000000), wk =   0.0034722
        k(  383) = (  -0.0416667   0.1683938   0.0000000), wk =   0.0034722
        k(  384) = (  -0.1250000   0.1202813   0.0000000), wk =   0.0034722
        k(  385) = (   0.1666667   0.0481125   0.0000000), wk =   0.0034722
        k(  386) = (  -0.1250000  -0.1202813   0.0000000), wk =   0.0034722
        k(  387) = (   0.1666667  -0.0481125   0.0000000), wk =   0.0034722
        k(  388) = (  -0.0416667   0.2165064   0.0000000), wk =   0.0034722
        k(  389) = (  -0.1666667   0.1443376   0.0000000), wk =   0.0034722
        k(  390) = (   0.2083333   0.0721688   0.0000000), wk =   0.0034722
        k(  391) = (  -0.1666667  -0.1443376   0.0000000), wk =   0.0034722
        k(  392) = (   0.2083333  -0.0721688   0.0000000), wk =   0.0034722
        k(  393) = (  -0.0416667   0.2646189   0.0000000), wk =   0.0034722
        k(  394) = (  -0.2083333   0.1683938   0.0000000), wk =   0.0034722
        k(  395) = (   0.2500000   0.0962250   0.0000000), wk =   0.0034722
        k(  396) = (  -0.2083333  -0.1683938   0.0000000), wk =   0.0034722
        k(  397) = (   0.2500000  -0.0962250   0.0000000), wk =   0.0034722
        k(  398) = (  -0.0416667   0.3127314   0.0000000), wk =   0.0034722
        k(  399) = (  -0.2500000   0.1924501   0.0000000), wk =   0.0034722
        k(  400) = (   0.2916667   0.1202813   0.0000000), wk =   0.0034722
        k(  401) = (  -0.2500000  -0.1924501   0.0000000), wk =   0.0034722
        k(  402) = (   0.2916667  -0.1202813   0.0000000), wk =   0.0034722
        k(  403) = (  -0.0416667   0.3608439   0.0000000), wk =   0.0034722
        k(  404) = (  -0.2916667   0.2165064   0.0000000), wk =   0.0034722
        k(  405) = (   0.3333333   0.1443376   0.0000000), wk =   0.0034722
        k(  406) = (  -0.2916667  -0.2165064   0.0000000), wk =   0.0034722
        k(  407) = (   0.3333333  -0.1443376   0.0000000), wk =   0.0034722
        k(  408) = (  -0.0416667   0.4089564   0.0000000), wk =   0.0034722
        k(  409) = (  -0.3333333   0.2405626   0.0000000), wk =   0.0034722
        k(  410) = (   0.3750000   0.1683938   0.0000000), wk =   0.0034722
        k(  411) = (  -0.3333333  -0.2405626   0.0000000), wk =   0.0034722
        k(  412) = (   0.3750000  -0.1683938   0.0000000), wk =   0.0034722
        k(  413) = (  -0.0416667   0.4570690   0.0000000), wk =   0.0034722
        k(  414) = (  -0.3750000   0.2646189   0.0000000), wk =   0.0034722
        k(  415) = (   0.4166667   0.1924501   0.0000000), wk =   0.0034722
        k(  416) = (  -0.3750000  -0.2646189   0.0000000), wk =   0.0034722
        k(  417) = (   0.4166667  -0.1924501   0.0000000), wk =   0.0034722
        k(  418) = (  -0.0416667   0.5051815   0.0000000), wk =   0.0034722
        k(  419) = (  -0.4166667   0.2886751   0.0000000), wk =   0.0034722
        k(  420) = (   0.4583333   0.2165064   0.0000000), wk =   0.0034722
        k(  421) = (  -0.4166667  -0.2886751   0.0000000), wk =   0.0034722
        k(  422) = (   0.4583333  -0.2165064   0.0000000), wk =   0.0034722
        k(  423) = (  -0.0416667   0.5532940   0.0000000), wk =   0.0034722
        k(  424) = (  -0.4583333   0.3127314   0.0000000), wk =   0.0034722
        k(  425) = (   0.5000000   0.2405626   0.0000000), wk =   0.0034722
        k(  426) = (  -0.4583333  -0.3127314   0.0000000), wk =   0.0034722
        k(  427) = (   0.5000000  -0.2405626   0.0000000), wk =   0.0034722
        k(  428) = (  -0.0833333   0.1443376   0.0000000), wk =   0.0034722
        k(  429) = (   0.1666667  -0.0000000   0.0000000), wk =   0.0034722
        k(  430) = (  -0.0833333   0.1924501   0.0000000), wk =   0.0034722
        k(  431) = (  -0.1250000   0.1683938   0.0000000), wk =   0.0034722
        k(  432) = (   0.2083333   0.0240563   0.0000000), wk =   0.0034722
        k(  433) = (  -0.1250000  -0.1683938   0.0000000), wk =   0.0034722
        k(  434) = (   0.2083333  -0.0240563   0.0000000), wk =   0.0034722
        k(  435) = (  -0.0833333   0.2405626   0.0000000), wk =   0.0034722
        k(  436) = (  -0.1666667   0.1924501   0.0000000), wk =   0.0034722
        k(  437) = (   0.2500000   0.0481125   0.0000000), wk =   0.0034722
        k(  438) = (  -0.1666667  -0.1924501   0.0000000), wk =   0.0034722
        k(  439) = (   0.2500000  -0.0481125   0.0000000), wk =   0.0034722
        k(  440) = (  -0.0833333   0.2886751   0.0000000), wk =   0.0034722
        k(  441) = (  -0.2083333   0.2165064   0.0000000), wk =   0.0034722
        k(  442) = (   0.2916667   0.0721688   0.0000000), wk =   0.0034722
        k(  443) = (  -0.2083333  -0.2165064   0.0000000), wk =   0.0034722
        k(  444) = (   0.2916667  -0.0721688   0.0000000), wk =   0.0034722
        k(  445) = (  -0.0833333   0.3367877   0.0000000), wk =   0.0034722
        k(  446) = (  -0.2500000   0.2405626   0.0000000), wk =   0.0034722
        k(  447) = (   0.3333333   0.0962250   0.0000000), wk =   0.0034722
        k(  448) = (  -0.2500000  -0.2405626   0.0000000), wk =   0.0034722
        k(  449) = (   0.3333333  -0.0962250   0.0000000), wk =   0.0034722
        k(  450) = (  -0.0833333   0.3849002   0.0000000), wk =   0.0034722
        k(  451) = (  -0.2916667   0.2646189   0.0000000), wk =   0.0034722
        k(  452) = (   0.3750000   0.1202813   0.0000000), wk =   0.0034722
        k(  453) = (  -0.2916667  -0.2646189   0.0000000), wk =   0.0034722
        k(  454) = (   0.3750000  -0.1202813   0.0000000), wk =   0.0034722
        k(  455) = (  -0.0833333   0.4330127   0.0000000), wk =   0.0034722
        k(  456) = (  -0.3333333   0.2886751   0.0000000), wk =   0.0034722
        k(  457) = (   0.4166667   0.1443376   0.0000000), wk =   0.0034722
        k(  458) = (  -0.3333333  -0.2886751   0.0000000), wk =   0.0034722
        k(  459) = (   0.4166667  -0.1443376   0.0000000), wk =   0.0034722
        k(  460) = (  -0.0833333   0.4811252   0.0000000), wk =   0.0034722
        k(  461) = (  -0.3750000   0.3127314   0.0000000), wk =   0.0034722
        k(  462) = (   0.4583333   0.1683938   0.0000000), wk =   0.0034722
        k(  463) = (  -0.3750000  -0.3127314   0.0000000), wk =   0.0034722
        k(  464) = (   0.4583333  -0.1683938   0.0000000), wk =   0.0034722
        k(  465) = (  -0.0833333   0.5292377   0.0000000), wk =   0.0034722
        k(  466) = (  -0.4166667   0.3367877   0.0000000), wk =   0.0034722
        k(  467) = (   0.5000000   0.1924501   0.0000000), wk =   0.0034722
        k(  468) = (  -0.4166667  -0.3367877   0.0000000), wk =   0.0034722
        k(  469) = (   0.5000000  -0.1924501   0.0000000), wk =   0.0034722
        k(  470) = (  -0.4583333   0.3608439   0.0000000), wk =   0.0034722
        k(  471) = (   0.5416667   0.2165064   0.0000000), wk =   0.0034722
        k(  472) = (  -0.1250000   0.2165064   0.0000000), wk =   0.0034722
        k(  473) = (   0.2500000  -0.0000000   0.0000000), wk =   0.0034722
        k(  474) = (  -0.1250000   0.2646189   0.0000000), wk =   0.0034722
        k(  475) = (  -0.1666667   0.2405626   0.0000000), wk =   0.0034722
        k(  476) = (   0.2916667   0.0240563   0.0000000), wk =   0.0034722
        k(  477) = (  -0.1666667  -0.2405626   0.0000000), wk =   0.0034722
        k(  478) = (   0.2916667  -0.0240563   0.0000000), wk =   0.0034722
        k(  479) = (  -0.1250000   0.3127314   0.0000000), wk =   0.0034722
        k(  480) = (  -0.2083333   0.2646189   0.0000000), wk =   0.0034722
        k(  481) = (   0.3333333   0.0481125   0.0000000), wk =   0.0034722
        k(  482) = (  -0.2083333  -0.2646189   0.0000000), wk =   0.0034722
        k(  483) = (   0.3333333  -0.0481125   0.0000000), wk =   0.0034722
        k(  484) = (  -0.1250000   0.3608439   0.0000000), wk =   0.0034722
        k(  485) = (  -0.2500000   0.2886751   0.0000000), wk =   0.0034722
        k(  486) = (   0.3750000   0.0721688   0.0000000), wk =   0.0034722
        k(  487) = (  -0.2500000  -0.2886751   0.0000000), wk =   0.0034722
        k(  488) = (   0.3750000  -0.0721688   0.0000000), wk =   0.0034722
        k(  489) = (  -0.1250000   0.4089564   0.0000000), wk =   0.0034722
        k(  490) = (  -0.2916667   0.3127314   0.0000000), wk =   0.0034722
        k(  491) = (   0.4166667   0.0962250   0.0000000), wk =   0.0034722
        k(  492) = (  -0.2916667  -0.3127314   0.0000000), wk =   0.0034722
        k(  493) = (   0.4166667  -0.0962250   0.0000000), wk =   0.0034722
        k(  494) = (  -0.1250000   0.4570690   0.0000000), wk =   0.0034722
        k(  495) = (  -0.3333333   0.3367877   0.0000000), wk =   0.0034722
        k(  496) = (   0.4583333   0.1202813   0.0000000), wk =   0.0034722
        k(  497) = (  -0.3333333  -0.3367877   0.0000000), wk =   0.0034722
        k(  498) = (   0.4583333  -0.1202813   0.0000000), wk =   0.0034722
        k(  499) = (  -0.1250000   0.5051815   0.0000000), wk =   0.0034722
        k(  500) = (  -0.3750000   0.3608439   0.0000000), wk =   0.0034722
        k(  501) = (   0.5000000   0.1443376   0.0000000), wk =   0.0034722
        k(  502) = (  -0.3750000  -0.3608439   0.0000000), wk =   0.0034722
        k(  503) = (   0.5000000  -0.1443376   0.0000000), wk =   0.0034722
        k(  504) = (  -0.1250000   0.5532940   0.0000000), wk =   0.0034722
        k(  505) = (  -0.4166667   0.3849002   0.0000000), wk =   0.0034722
        k(  506) = (   0.5416667   0.1683938   0.0000000), wk =   0.0034722
        k(  507) = (  -0.4166667  -0.3849002   0.0000000), wk =   0.0034722
        k(  508) = (   0.5416667  -0.1683938   0.0000000), wk =   0.0034722
        k(  509) = (  -0.1666667   0.2886751   0.0000000), wk =   0.0034722
        k(  510) = (   0.3333333  -0.0000000   0.0000000), wk =   0.0034722
        k(  511) = (  -0.1666667   0.3367877   0.0000000), wk =   0.0034722
        k(  512) = (  -0.2083333   0.3127314   0.0000000), wk =   0.0034722
        k(  513) = (   0.3750000   0.0240563   0.0000000), wk =   0.0034722
        k(  514) = (  -0.2083333  -0.3127314   0.0000000), wk =   0.0034722
        k(  515) = (   0.3750000  -0.0240563   0.0000000), wk =   0.0034722
        k(  516) = (  -0.1666667   0.3849002   0.0000000), wk =   0.0034722
        k(  517) = (  -0.2500000   0.3367877   0.0000000), wk =   0.0034722
        k(  518) = (   0.4166667   0.0481125   0.0000000), wk =   0.0034722
        k(  519) = (  -0.2500000  -0.3367877   0.0000000), wk =   0.0034722
        k(  520) = (   0.4166667  -0.0481125   0.0000000), wk =   0.0034722
        k(  521) = (  -0.1666667   0.4330127   0.0000000), wk =   0.0034722
        k(  522) = (  -0.2916667   0.3608439   0.0000000), wk =   0.0034722
        k(  523) = (   0.4583333   0.0721688   0.0000000), wk =   0.0034722
        k(  524) = (  -0.2916667  -0.3608439   0.0000000), wk =   0.0034722
        k(  525) = (   0.4583333  -0.0721688   0.0000000), wk =   0.0034722
        k(  526) = (  -0.1666667   0.4811252   0.0000000), wk =   0.0034722
        k(  527) = (  -0.3333333   0.3849002   0.0000000), wk =   0.0034722
        k(  528) = (   0.5000000   0.0962250   0.0000000), wk =   0.0034722
        k(  529) = (  -0.3333333  -0.3849002   0.0000000), wk =   0.0034722
        k(  530) = (   0.5000000  -0.0962250   0.0000000), wk =   0.0034722
        k(  531) = (  -0.1666667   0.5292377   0.0000000), wk =   0.0034722
        k(  532) = (  -0.3750000   0.4089564   0.0000000), wk =   0.0034722
        k(  533) = (   0.5416667   0.1202813   0.0000000), wk =   0.0034722
        k(  534) = (  -0.3750000  -0.4089564   0.0000000), wk =   0.0034722
        k(  535) = (   0.5416667  -0.1202813   0.0000000), wk =   0.0034722
        k(  536) = (  -0.4166667   0.4330127   0.0000000), wk =   0.0034722
        k(  537) = (   0.5833333   0.1443376   0.0000000), wk =   0.0034722
        k(  538) = (  -0.2083333   0.3608439   0.0000000), wk =   0.0034722
        k(  539) = (   0.4166667  -0.0000000   0.0000000), wk =   0.0034722
        k(  540) = (  -0.2083333   0.4089564   0.0000000), wk =   0.0034722
        k(  541) = (  -0.2500000   0.3849002   0.0000000), wk =   0.0034722
        k(  542) = (   0.4583333   0.0240563   0.0000000), wk =   0.0034722
        k(  543) = (  -0.2500000  -0.3849002   0.0000000), wk =   0.0034722
        k(  544) = (   0.4583333  -0.0240563   0.0000000), wk =   0.0034722
        k(  545) = (  -0.2083333   0.4570690   0.0000000), wk =   0.0034722
        k(  546) = (  -0.2916667   0.4089564   0.0000000), wk =   0.0034722
        k(  547) = (   0.5000000   0.0481125   0.0000000), wk =   0.0034722
        k(  548) = (  -0.2916667  -0.4089564   0.0000000), wk =   0.0034722
        k(  549) = (   0.5000000  -0.0481125   0.0000000), wk =   0.0034722
        k(  550) = (  -0.2083333   0.5051815   0.0000000), wk =   0.0034722
        k(  551) = (  -0.3333333   0.4330127   0.0000000), wk =   0.0034722
        k(  552) = (   0.5416667   0.0721688   0.0000000), wk =   0.0034722
        k(  553) = (  -0.3333333  -0.4330127   0.0000000), wk =   0.0034722
        k(  554) = (   0.5416667  -0.0721688   0.0000000), wk =   0.0034722
        k(  555) = (  -0.2083333   0.5532940   0.0000000), wk =   0.0034722
        k(  556) = (  -0.3750000   0.4570690   0.0000000), wk =   0.0034722
        k(  557) = (   0.5833333   0.0962250   0.0000000), wk =   0.0034722
        k(  558) = (  -0.3750000  -0.4570690   0.0000000), wk =   0.0034722
        k(  559) = (   0.5833333  -0.0962250   0.0000000), wk =   0.0034722
        k(  560) = (  -0.2500000   0.4330127   0.0000000), wk =   0.0034722
        k(  561) = (   0.5000000  -0.0000000   0.0000000), wk =   0.0034722
        k(  562) = (  -0.2500000   0.4811252   0.0000000), wk =   0.0034722
        k(  563) = (  -0.2916667   0.4570690   0.0000000), wk =   0.0034722
        k(  564) = (   0.5416667   0.0240563   0.0000000), wk =   0.0034722
        k(  565) = (  -0.2916667  -0.4570690   0.0000000), wk =   0.0034722
        k(  566) = (   0.5416667  -0.0240563   0.0000000), wk =   0.0034722
        k(  567) = (  -0.2500000   0.5292377   0.0000000), wk =   0.0034722
        k(  568) = (  -0.3333333   0.4811252   0.0000000), wk =   0.0034722
        k(  569) = (   0.5833333   0.0481125   0.0000000), wk =   0.0034722
        k(  570) = (  -0.3333333  -0.4811252   0.0000000), wk =   0.0034722
        k(  571) = (   0.5833333  -0.0481125   0.0000000), wk =   0.0034722
        k(  572) = (  -0.3750000   0.5051815   0.0000000), wk =   0.0034722
        k(  573) = (   0.6250000   0.0721688   0.0000000), wk =   0.0034722
        k(  574) = (  -0.2916667   0.5051815   0.0000000), wk =   0.0034722
        k(  575) = (   0.5833333  -0.0000000   0.0000000), wk =   0.0034722
        k(  576) = (  -0.2916667   0.5532940   0.0000000), wk =   0.0034722
        k(  577) = (  -0.3333333   0.5292377   0.0000000), wk =   0.0034722
        k(  578) = (   0.6250000   0.0240563   0.0000000), wk =   0.0034722
        k(  579) = (  -0.3333333  -0.5292377   0.0000000), wk =   0.0034722
        k(  580) = (   0.6250000  -0.0240563   0.0000000), wk =   0.0034722

                       cryst. coord.
        k(    1) = (   0.0000000   0.0000000   0.0000000), wk =   0.0017361
        k(    2) = (   0.0000000   0.0416667   0.0000000), wk =   0.0034722
        k(    3) = (   0.0000000   0.0833333   0.0000000), wk =   0.0034722
        k(    4) = (   0.0000000   0.1250000   0.0000000), wk =   0.0034722
        k(    5) = (   0.0000000   0.1666667   0.0000000), wk =   0.0034722
        k(    6) = (   0.0000000   0.2083333   0.0000000), wk =   0.0034722
        k(    7) = (   0.0000000   0.2500000   0.0000000), wk =   0.0034722
        k(    8) = (   0.0000000   0.2916667   0.0000000), wk =   0.0034722
        k(    9) = (   0.0000000   0.3333333   0.0000000), wk =   0.0034722
        k(   10) = (   0.0000000   0.3750000   0.0000000), wk =   0.0034722
        k(   11) = (   0.0000000   0.4166667   0.0000000), wk =   0.0034722
        k(   12) = (   0.0000000   0.4583333   0.0000000), wk =   0.0034722
        k(   13) = (   0.0000000  -0.5000000   0.0000000), wk =   0.0017361
        k(   14) = (   0.0416667   0.0416667   0.0000000), wk =   0.0034722
        k(   15) = (   0.0416667   0.0833333   0.0000000), wk =   0.0034722
        k(   16) = (   0.0416667   0.1250000   0.0000000), wk =   0.0034722
        k(   17) = (   0.0416667   0.1666667   0.0000000), wk =   0.0034722
        k(   18) = (   0.0416667   0.2083333   0.0000000), wk =   0.0034722
        k(   19) = (   0.0416667   0.2500000   0.0000000), wk =   0.0034722
        k(   20) = (   0.0416667   0.2916667   0.0000000), wk =   0.0034722
        k(   21) = (   0.0416667   0.3333333   0.0000000), wk =   0.0034722
        k(   22) = (   0.0416667   0.3750000   0.0000000), wk =   0.0034722
        k(   23) = (   0.0416667   0.4166667   0.0000000), wk =   0.0034722
        k(   24) = (   0.0416667   0.4583333   0.0000000), wk =   0.0034722
        k(   25) = (   0.0833333   0.0833333   0.0000000), wk =   0.0034722
        k(   26) = (   0.0833333   0.1250000   0.0000000), wk =   0.0034722
        k(   27) = (   0.0833333   0.1666667   0.0000000), wk =   0.0034722
        k(   28) = (   0.0833333   0.2083333   0.0000000), wk =   0.0034722
        k(   29) = (   0.0833333   0.2500000   0.0000000), wk =   0.0034722
        k(   30) = (   0.0833333   0.2916667   0.0000000), wk =   0.0034722
        k(   31) = (   0.0833333   0.3333333   0.0000000), wk =   0.0034722
        k(   32) = (   0.0833333   0.3750000   0.0000000), wk =   0.0034722
        k(   33) = (   0.0833333   0.4166667   0.0000000), wk =   0.0034722
        k(   34) = (   0.0833333   0.4583333   0.0000000), wk =   0.0034722
        k(   35) = (   0.1250000   0.1250000   0.0000000), wk =   0.0034722
        k(   36) = (   0.1250000   0.1666667   0.0000000), wk =   0.0034722
        k(   37) = (   0.1250000   0.2083333   0.0000000), wk =   0.0034722
        k(   38) = (   0.1250000   0.2500000   0.0000000), wk =   0.0034722
        k(   39) = (   0.1250000   0.2916667   0.0000000), wk =   0.0034722
        k(   40) = (   0.1250000   0.3333333   0.0000000), wk =   0.0034722
        k(   41) = (   0.1250000   0.3750000   0.0000000), wk =   0.0034722
        k(   42) = (   0.1250000   0.4166667   0.0000000), wk =   0.0034722
        k(   43) = (   0.1666667   0.1666667   0.0000000), wk =   0.0034722
        k(   44) = (   0.1666667   0.2083333   0.0000000), wk =   0.0034722
        k(   45) = (   0.1666667   0.2500000   0.0000000), wk =   0.0034722
        k(   46) = (   0.1666667   0.2916667   0.0000000), wk =   0.0034722
        k(   47) = (   0.1666667   0.3333333   0.0000000), wk =   0.0034722
        k(   48) = (   0.1666667   0.3750000   0.0000000), wk =   0.0034722
        k(   49) = (   0.1666667   0.4166667   0.0000000), wk =   0.0034722
        k(   50) = (   0.2083333   0.2083333   0.0000000), wk =   0.0034722
        k(   51) = (   0.2083333   0.2500000   0.0000000), wk =   0.0034722
        k(   52) = (   0.2083333   0.2916667   0.0000000), wk =   0.0034722
        k(   53) = (   0.2083333   0.3333333   0.0000000), wk =   0.0034722
        k(   54) = (   0.2083333   0.3750000   0.0000000), wk =   0.0034722
        k(   55) = (   0.2500000   0.2500000   0.0000000), wk =   0.0034722
        k(   56) = (   0.2500000   0.2916667   0.0000000), wk =   0.0034722
        k(   57) = (   0.2500000   0.3333333   0.0000000), wk =   0.0034722
        k(   58) = (   0.2500000   0.3750000   0.0000000), wk =   0.0034722
        k(   59) = (   0.2916667   0.2916667   0.0000000), wk =   0.0034722
        k(   60) = (   0.2916667   0.3333333   0.0000000), wk =   0.0034722
        k(   61) = (   0.3333333   0.3333333   0.0000000), wk =   0.0034722
        k(   62) = (  -0.0416667   0.0416667   0.0000000), wk =   0.0034722
        k(   63) = (   0.0416667   0.0000000   0.0000000), wk =   0.0034722
        k(   64) = (  -0.0833333   0.0833333   0.0000000), wk =   0.0034722
        k(   65) = (   0.0833333   0.0000000   0.0000000), wk =   0.0034722
        k(   66) = (  -0.1250000   0.1250000   0.0000000), wk =   0.0034722
        k(   67) = (   0.1250000   0.0000000   0.0000000), wk =   0.0034722
        k(   68) = (  -0.1666667   0.1666667   0.0000000), wk =   0.0034722
        k(   69) = (   0.1666667   0.0000000   0.0000000), wk =   0.0034722
        k(   70) = (  -0.2083333   0.2083333   0.0000000), wk =   0.0034722
        k(   71) = (   0.2083333   0.0000000   0.0000000), wk =   0.0034722
        k(   72) = (  -0.2500000   0.2500000   0.0000000), wk =   0.0034722
        k(   73) = (   0.2500000   0.0000000   0.0000000), wk =   0.0034722
        k(   74) = (  -0.2916667   0.2916667   0.0000000), wk =   0.0034722
        k(   75) = (   0.2916667   0.0000000   0.0000000), wk =   0.0034722
        k(   76) = (  -0.3333333   0.3333333   0.0000000), wk =   0.0034722
        k(   77) = (   0.3333333   0.0000000   0.0000000), wk =   0.0034722
        k(   78) = (  -0.3750000   0.3750000   0.0000000), wk =   0.0034722
        k(   79) = (   0.3750000  -0.0000000   0.0000000), wk =   0.0034722
        k(   80) = (  -0.4166667   0.4166667   0.0000000), wk =   0.0034722
        k(   81) = (   0.4166667   0.0000000   0.0000000), wk =   0.0034722
        k(   82) = (  -0.4583333   0.4583333   0.0000000), wk =   0.0034722
        k(   83) = (   0.4583333  -0.0000000   0.0000000), wk =   0.0034722
        k(   84) = (   0.5000000  -0.5000000   0.0000000), wk =   0.0017361
        k(   85) = (  -0.5000000   0.0000000   0.0000000), wk =   0.0017361
        k(   86) = (  -0.0416667   0.0833333   0.0000000), wk =   0.0034722
        k(   87) = (   0.0833333  -0.0416667   0.0000000), wk =   0.0034722
        k(   88) = (  -0.0416667   0.1250000   0.0000000), wk =   0.0034722
        k(   89) = (  -0.0833333   0.1250000   0.0000000), wk =   0.0034722
        k(   90) = (   0.1250000  -0.0416667   0.0000000), wk =   0.0034722
        k(   91) = (  -0.0833333  -0.0416667   0.0000000), wk =   0.0034722
        k(   92) = (   0.1250000  -0.0833333   0.0000000), wk =   0.0034722
        k(   93) = (  -0.0416667   0.1666667   0.0000000), wk =   0.0034722
        k(   94) = (  -0.1250000   0.1666667   0.0000000), wk =   0.0034722
        k(   95) = (   0.1666667  -0.0416667   0.0000000), wk =   0.0034722
        k(   96) = (  -0.1250000  -0.0416667   0.0000000), wk =   0.0034722
        k(   97) = (   0.1666667  -0.1250000   0.0000000), wk =   0.0034722
        k(   98) = (  -0.0416667   0.2083333   0.0000000), wk =   0.0034722
        k(   99) = (  -0.1666667   0.2083333   0.0000000), wk =   0.0034722
        k(  100) = (   0.2083333  -0.0416667   0.0000000), wk =   0.0034722
        k(  101) = (  -0.1666667  -0.0416667   0.0000000), wk =   0.0034722
        k(  102) = (   0.2083333  -0.1666667   0.0000000), wk =   0.0034722
        k(  103) = (  -0.0416667   0.2500000   0.0000000), wk =   0.0034722
        k(  104) = (  -0.2083333   0.2500000   0.0000000), wk =   0.0034722
        k(  105) = (   0.2500000  -0.0416667   0.0000000), wk =   0.0034722
        k(  106) = (  -0.2083333  -0.0416667   0.0000000), wk =   0.0034722
        k(  107) = (   0.2500000  -0.2083333   0.0000000), wk =   0.0034722
        k(  108) = (  -0.0416667   0.2916667   0.0000000), wk =   0.0034722
        k(  109) = (  -0.2500000   0.2916667   0.0000000), wk =   0.0034722
        k(  110) = (   0.2916667  -0.0416667   0.0000000), wk =   0.0034722
        k(  111) = (  -0.2500000  -0.0416667   0.0000000), wk =   0.0034722
        k(  112) = (   0.2916667  -0.2500000   0.0000000), wk =   0.0034722
        k(  113) = (  -0.0416667   0.3333333   0.0000000), wk =   0.0034722
        k(  114) = (  -0.2916667   0.3333333   0.0000000), wk =   0.0034722
        k(  115) = (   0.3333333  -0.0416667   0.0000000), wk =   0.0034722
        k(  116) = (  -0.2916667  -0.0416667   0.0000000), wk =   0.0034722
        k(  117) = (   0.3333333  -0.2916667   0.0000000), wk =   0.0034722
        k(  118) = (  -0.0416667   0.3750000   0.0000000), wk =   0.0034722
        k(  119) = (  -0.3333333   0.3750000   0.0000000), wk =   0.0034722
        k(  120) = (   0.3750000  -0.0416667   0.0000000), wk =   0.0034722
        k(  121) = (  -0.3333333  -0.0416667   0.0000000), wk =   0.0034722
        k(  122) = (   0.3750000  -0.3333333   0.0000000), wk =   0.0034722
        k(  123) = (  -0.0416667   0.4166667   0.0000000), wk =   0.0034722
        k(  124) = (  -0.3750000   0.4166667   0.0000000), wk =   0.0034722
        k(  125) = (   0.4166667  -0.0416667   0.0000000), wk =   0.0034722
        k(  126) = (  -0.3750000  -0.0416667   0.0000000), wk =   0.0034722
        k(  127) = (   0.4166667  -0.3750000   0.0000000), wk =   0.0034722
        k(  128) = (  -0.0416667   0.4583333   0.0000000), wk =   0.0034722
        k(  129) = (  -0.4166667   0.4583333   0.0000000), wk =   0.0034722
        k(  130) = (   0.4583333  -0.0416667   0.0000000), wk =   0.0034722
        k(  131) = (  -0.4166667  -0.0416667   0.0000000), wk =   0.0034722
        k(  132) = (   0.4583333  -0.4166667   0.0000000), wk =   0.0034722
        k(  133) = (  -0.0416667   0.5000000   0.0000000), wk =   0.0034722
        k(  134) = (  -0.4583333   0.5000000   0.0000000), wk =   0.0034722
        k(  135) = (   0.5000000  -0.0416667   0.0000000), wk =   0.0034722
        k(  136) = (  -0.4583333  -0.0416667   0.0000000), wk =   0.0034722
        k(  137) = (   0.5000000  -0.4583333   0.0000000), wk =   0.0034722
        k(  138) = (  -0.0833333   0.1666667   0.0000000), wk =   0.0034722
        k(  139) = (   0.1666667  -0.0833333   0.0000000), wk =   0.0034722
        k(  140) = (  -0.0833333   0.2083333   0.0000000), wk =   0.0034722
        k(  141) = (  -0.1250000   0.2083333   0.0000000), wk =   0.0034722
        k(  142) = (   0.2083333  -0.0833333   0.0000000), wk =   0.0034722
        k(  143) = (  -0.1250000  -0.0833333   0.0000000), wk =   0.0034722
        k(  144) = (   0.2083333  -0.1250000   0.0000000), wk =   0.0034722
        k(  145) = (  -0.0833333   0.2500000   0.0000000), wk =   0.0034722
        k(  146) = (  -0.1666667   0.2500000   0.0000000), wk =   0.0034722
        k(  147) = (   0.2500000  -0.0833333   0.0000000), wk =   0.0034722
        k(  148) = (  -0.1666667  -0.0833333   0.0000000), wk =   0.0034722
        k(  149) = (   0.2500000  -0.1666667   0.0000000), wk =   0.0034722
        k(  150) = (  -0.0833333   0.2916667   0.0000000), wk =   0.0034722
        k(  151) = (  -0.2083333   0.2916667   0.0000000), wk =   0.0034722
        k(  152) = (   0.2916667  -0.0833333   0.0000000), wk =   0.0034722
        k(  153) = (  -0.2083333  -0.0833333   0.0000000), wk =   0.0034722
        k(  154) = (   0.2916667  -0.2083333   0.0000000), wk =   0.0034722
        k(  155) = (  -0.0833333   0.3333333   0.0000000), wk =   0.0034722
        k(  156) = (  -0.2500000   0.3333333   0.0000000), wk =   0.0034722
        k(  157) = (   0.3333333  -0.0833333   0.0000000), wk =   0.0034722
        k(  158) = (  -0.2500000  -0.0833333   0.0000000), wk =   0.0034722
        k(  159) = (   0.3333333  -0.2500000   0.0000000), wk =   0.0034722
        k(  160) = (  -0.0833333   0.3750000   0.0000000), wk =   0.0034722
        k(  161) = (  -0.2916667   0.3750000   0.0000000), wk =   0.0034722
        k(  162) = (   0.3750000  -0.0833333   0.0000000), wk =   0.0034722
        k(  163) = (  -0.2916667  -0.0833333   0.0000000), wk =   0.0034722
        k(  164) = (   0.3750000  -0.2916667   0.0000000), wk =   0.0034722
        k(  165) = (  -0.0833333   0.4166667   0.0000000), wk =   0.0034722
        k(  166) = (  -0.3333333   0.4166667   0.0000000), wk =   0.0034722
        k(  167) = (   0.4166667  -0.0833333   0.0000000), wk =   0.0034722
        k(  168) = (  -0.3333333  -0.0833333   0.0000000), wk =   0.0034722
        k(  169) = (   0.4166667  -0.3333333   0.0000000), wk =   0.0034722
        k(  170) = (  -0.0833333   0.4583333   0.0000000), wk =   0.0034722
        k(  171) = (  -0.3750000   0.4583333   0.0000000), wk =   0.0034722
        k(  172) = (   0.4583333  -0.0833333   0.0000000), wk =   0.0034722
        k(  173) = (  -0.3750000  -0.0833333   0.0000000), wk =   0.0034722
        k(  174) = (   0.4583333  -0.3750000   0.0000000), wk =   0.0034722
        k(  175) = (  -0.0833333   0.5000000   0.0000000), wk =   0.0034722
        k(  176) = (  -0.4166667   0.5000000   0.0000000), wk =   0.0034722
        k(  177) = (   0.5000000  -0.0833333   0.0000000), wk =   0.0034722
        k(  178) = (  -0.4166667  -0.0833333   0.0000000), wk =   0.0034722
        k(  179) = (   0.5000000  -0.4166667   0.0000000), wk =   0.0034722
        k(  180) = (  -0.4583333   0.5416667   0.0000000), wk =   0.0034722
        k(  181) = (   0.5416667  -0.0833333   0.0000000), wk =   0.0034722
        k(  182) = (  -0.1250000   0.2500000   0.0000000), wk =   0.0034722
        k(  183) = (   0.2500000  -0.1250000   0.0000000), wk =   0.0034722
        k(  184) = (  -0.1250000   0.2916667   0.0000000), wk =   0.0034722
        k(  185) = (  -0.1666667   0.2916667   0.0000000), wk =   0.0034722
        k(  186) = (   0.2916667  -0.1250000   0.0000000), wk =   0.0034722
        k(  187) = (  -0.1666667  -0.1250000   0.0000000), wk =   0.0034722
        k(  188) = (   0.2916667  -0.1666667   0.0000000), wk =   0.0034722
        k(  189) = (  -0.1250000   0.3333333   0.0000000), wk =   0.0034722
        k(  190) = (  -0.2083333   0.3333333   0.0000000), wk =   0.0034722
        k(  191) = (   0.3333333  -0.1250000   0.0000000), wk =   0.0034722
        k(  192) = (  -0.2083333  -0.1250000   0.0000000), wk =   0.0034722
        k(  193) = (   0.3333333  -0.2083333   0.0000000), wk =   0.0034722
        k(  194) = (  -0.1250000   0.3750000   0.0000000), wk =   0.0034722
        k(  195) = (  -0.2500000   0.3750000   0.0000000), wk =   0.0034722
        k(  196) = (   0.3750000  -0.1250000   0.0000000), wk =   0.0034722
        k(  197) = (  -0.2500000  -0.1250000   0.0000000), wk =   0.0034722
        k(  198) = (   0.3750000  -0.2500000   0.0000000), wk =   0.0034722
        k(  199) = (  -0.1250000   0.4166667   0.0000000), wk =   0.0034722
        k(  200) = (  -0.2916667   0.4166667   0.0000000), wk =   0.0034722
        k(  201) = (   0.4166667  -0.1250000   0.0000000), wk =   0.0034722
        k(  202) = (  -0.2916667  -0.1250000   0.0000000), wk =   0.0034722
        k(  203) = (   0.4166667  -0.2916667   0.0000000), wk =   0.0034722
        k(  204) = (  -0.1250000   0.4583333   0.0000000), wk =   0.0034722
        k(  205) = (  -0.3333333   0.4583333   0.0000000), wk =   0.0034722
        k(  206) = (   0.4583333  -0.1250000   0.0000000), wk =   0.0034722
        k(  207) = (  -0.3333333  -0.1250000   0.0000000), wk =   0.0034722
        k(  208) = (   0.4583333  -0.3333333   0.0000000), wk =   0.0034722
        k(  209) = (  -0.1250000   0.5000000   0.0000000), wk =   0.0034722
        k(  210) = (  -0.3750000   0.5000000   0.0000000), wk =   0.0034722
        k(  211) = (   0.5000000  -0.1250000   0.0000000), wk =   0.0034722
        k(  212) = (  -0.3750000  -0.1250000   0.0000000), wk =   0.0034722
        k(  213) = (   0.5000000  -0.3750000   0.0000000), wk =   0.0034722
        k(  214) = (  -0.1250000   0.5416667   0.0000000), wk =   0.0034722
        k(  215) = (  -0.4166667   0.5416667   0.0000000), wk =   0.0034722
        k(  216) = (   0.5416667  -0.1250000   0.0000000), wk =   0.0034722
        k(  217) = (  -0.4166667  -0.1250000   0.0000000), wk =   0.0034722
        k(  218) = (   0.5416667  -0.4166667   0.0000000), wk =   0.0034722
        k(  219) = (  -0.1666667   0.3333333   0.0000000), wk =   0.0034722
        k(  220) = (   0.3333333  -0.1666667   0.0000000), wk =   0.0034722
        k(  221) = (  -0.1666667   0.3750000   0.0000000), wk =   0.0034722
        k(  222) = (  -0.2083333   0.3750000   0.0000000), wk =   0.0034722
        k(  223) = (   0.3750000  -0.1666667   0.0000000), wk =   0.0034722
        k(  224) = (  -0.2083333  -0.1666667   0.0000000), wk =   0.0034722
        k(  225) = (   0.3750000  -0.2083333   0.0000000), wk =   0.0034722
        k(  226) = (  -0.1666667   0.4166667   0.0000000), wk =   0.0034722
        k(  227) = (  -0.2500000   0.4166667   0.0000000), wk =   0.0034722
        k(  228) = (   0.4166667  -0.1666667   0.0000000), wk =   0.0034722
        k(  229) = (  -0.2500000  -0.1666667   0.0000000), wk =   0.0034722
        k(  230) = (   0.4166667  -0.2500000   0.0000000), wk =   0.0034722
        k(  231) = (  -0.1666667   0.4583333   0.0000000), wk =   0.0034722
        k(  232) = (  -0.2916667   0.4583333   0.0000000), wk =   0.0034722
        k(  233) = (   0.4583333  -0.1666667   0.0000000), wk =   0.0034722
        k(  234) = (  -0.2916667  -0.1666667   0.0000000), wk =   0.0034722
        k(  235) = (   0.4583333  -0.2916667   0.0000000), wk =   0.0034722
        k(  236) = (  -0.1666667   0.5000000   0.0000000), wk =   0.0034722
        k(  237) = (  -0.3333333   0.5000000   0.0000000), wk =   0.0034722
        k(  238) = (   0.5000000  -0.1666667   0.0000000), wk =   0.0034722
        k(  239) = (  -0.3333333  -0.1666667   0.0000000), wk =   0.0034722
        k(  240) = (   0.5000000  -0.3333333   0.0000000), wk =   0.0034722
        k(  241) = (  -0.1666667   0.5416667   0.0000000), wk =   0.0034722
        k(  242) = (  -0.3750000   0.5416667   0.0000000), wk =   0.0034722
        k(  243) = (   0.5416667  -0.1666667   0.0000000), wk =   0.0034722
        k(  244) = (  -0.3750000  -0.1666667   0.0000000), wk =   0.0034722
        k(  245) = (   0.5416667  -0.3750000   0.0000000), wk =   0.0034722
        k(  246) = (  -0.4166667   0.5833333   0.0000000), wk =   0.0034722
        k(  247) = (   0.5833333  -0.1666667   0.0000000), wk =   0.0034722
        k(  248) = (  -0.2083333   0.4166667   0.0000000), wk =   0.0034722
        k(  249) = (   0.4166667  -0.2083333   0.0000000), wk =   0.0034722
        k(  250) = (  -0.2083333   0.4583333   0.0000000), wk =   0.0034722
        k(  251) = (  -0.2500000   0.4583333   0.0000000), wk =   0.0034722
        k(  252) = (   0.4583333  -0.2083333   0.0000000), wk =   0.0034722
        k(  253) = (  -0.2500000  -0.2083333   0.0000000), wk =   0.0034722
        k(  254) = (   0.4583333  -0.2500000   0.0000000), wk =   0.0034722
        k(  255) = (  -0.2083333   0.5000000   0.0000000), wk =   0.0034722
        k(  256) = (  -0.2916667   0.5000000   0.0000000), wk =   0.0034722
        k(  257) = (   0.5000000  -0.2083333   0.0000000), wk =   0.0034722
        k(  258) = (  -0.2916667  -0.2083333   0.0000000), wk =   0.0034722
        k(  259) = (   0.5000000  -0.2916667   0.0000000), wk =   0.0034722
        k(  260) = (  -0.2083333   0.5416667   0.0000000), wk =   0.0034722
        k(  261) = (  -0.3333333   0.5416667   0.0000000), wk =   0.0034722
        k(  262) = (   0.5416667  -0.2083333   0.0000000), wk =   0.0034722
        k(  263) = (  -0.3333333  -0.2083333   0.0000000), wk =   0.0034722
        k(  264) = (   0.5416667  -0.3333333   0.0000000), wk =   0.0034722
        k(  265) = (  -0.2083333   0.5833333   0.0000000), wk =   0.0034722
        k(  266) = (  -0.3750000   0.5833333   0.0000000), wk =   0.0034722
        k(  267) = (   0.5833333  -0.2083333   0.0000000), wk =   0.0034722
        k(  268) = (  -0.3750000  -0.2083333   0.0000000), wk =   0.0034722
        k(  269) = (   0.5833333  -0.3750000   0.0000000), wk =   0.0034722
        k(  270) = (  -0.2500000   0.5000000   0.0000000), wk =   0.0034722
        k(  271) = (   0.5000000  -0.2500000   0.0000000), wk =   0.0034722
        k(  272) = (  -0.2500000   0.5416667   0.0000000), wk =   0.0034722
        k(  273) = (  -0.2916667   0.5416667   0.0000000), wk =   0.0034722
        k(  274) = (   0.5416667  -0.2500000   0.0000000), wk =   0.0034722
        k(  275) = (  -0.2916667  -0.2500000   0.0000000), wk =   0.0034722
        k(  276) = (   0.5416667  -0.2916667   0.0000000), wk =   0.0034722
        k(  277) = (  -0.2500000   0.5833333   0.0000000), wk =   0.0034722
        k(  278) = (  -0.3333333   0.5833333   0.0000000), wk =   0.0034722
        k(  279) = (   0.5833333  -0.2500000   0.0000000), wk =   0.0034722
        k(  280) = (  -0.3333333  -0.2500000   0.0000000), wk =   0.0034722
        k(  281) = (   0.5833333  -0.3333333   0.0000000), wk =   0.0034722
        k(  282) = (  -0.3750000   0.6250000   0.0000000), wk =   0.0034722
        k(  283) = (   0.6250000  -0.2500000   0.0000000), wk =   0.0034722
        k(  284) = (  -0.2916667   0.5833333   0.0000000), wk =   0.0034722
        k(  285) = (   0.5833333  -0.2916667   0.0000000), wk =   0.0034722
        k(  286) = (  -0.2916667   0.6250000   0.0000000), wk =   0.0034722
        k(  287) = (  -0.3333333   0.6250000   0.0000000), wk =   0.0034722
        k(  288) = (   0.6250000  -0.2916667   0.0000000), wk =   0.0034722
        k(  289) = (  -0.3333333  -0.2916667   0.0000000), wk =   0.0034722
        k(  290) = (   0.6250000  -0.3333333   0.0000000), wk =   0.0034722
        k(  291) = (   0.0000000   0.0000000   0.0000000), wk =   0.0017361
        k(  292) = (   0.0000000   0.0416667   0.0000000), wk =   0.0034722
        k(  293) = (   0.0000000   0.0833333   0.0000000), wk =   0.0034722
        k(  294) = (   0.0000000   0.1250000   0.0000000), wk =   0.0034722
        k(  295) = (   0.0000000   0.1666667   0.0000000), wk =   0.0034722
        k(  296) = (   0.0000000   0.2083333   0.0000000), wk =   0.0034722
        k(  297) = (   0.0000000   0.2500000   0.0000000), wk =   0.0034722
        k(  298) = (   0.0000000   0.2916667   0.0000000), wk =   0.0034722
        k(  299) = (   0.0000000   0.3333333   0.0000000), wk =   0.0034722
        k(  300) = (   0.0000000   0.3750000   0.0000000), wk =   0.0034722
        k(  301) = (   0.0000000   0.4166667   0.0000000), wk =   0.0034722
        k(  302) = (   0.0000000   0.4583333   0.0000000), wk =   0.0034722
        k(  303) = (   0.0000000  -0.5000000   0.0000000), wk =   0.0017361
        k(  304) = (   0.0416667   0.0416667   0.0000000), wk =   0.0034722
        k(  305) = (   0.0416667   0.0833333   0.0000000), wk =   0.0034722
        k(  306) = (   0.0416667   0.1250000   0.0000000), wk =   0.0034722
        k(  307) = (   0.0416667   0.1666667   0.0000000), wk =   0.0034722
        k(  308) = (   0.0416667   0.2083333   0.0000000), wk =   0.0034722
        k(  309) = (   0.0416667   0.2500000   0.0000000), wk =   0.0034722
        k(  310) = (   0.0416667   0.2916667   0.0000000), wk =   0.0034722
        k(  311) = (   0.0416667   0.3333333   0.0000000), wk =   0.0034722
        k(  312) = (   0.0416667   0.3750000   0.0000000), wk =   0.0034722
        k(  313) = (   0.0416667   0.4166667   0.0000000), wk =   0.0034722
        k(  314) = (   0.0416667   0.4583333   0.0000000), wk =   0.0034722
        k(  315) = (   0.0833333   0.0833333   0.0000000), wk =   0.0034722
        k(  316) = (   0.0833333   0.1250000   0.0000000), wk =   0.0034722
        k(  317) = (   0.0833333   0.1666667   0.0000000), wk =   0.0034722
        k(  318) = (   0.0833333   0.2083333   0.0000000), wk =   0.0034722
        k(  319) = (   0.0833333   0.2500000   0.0000000), wk =   0.0034722
        k(  320) = (   0.0833333   0.2916667   0.0000000), wk =   0.0034722
        k(  321) = (   0.0833333   0.3333333   0.0000000), wk =   0.0034722
        k(  322) = (   0.0833333   0.3750000   0.0000000), wk =   0.0034722
        k(  323) = (   0.0833333   0.4166667   0.0000000), wk =   0.0034722
        k(  324) = (   0.0833333   0.4583333   0.0000000), wk =   0.0034722
        k(  325) = (   0.1250000   0.1250000   0.0000000), wk =   0.0034722
        k(  326) = (   0.1250000   0.1666667   0.0000000), wk =   0.0034722
        k(  327) = (   0.1250000   0.2083333   0.0000000), wk =   0.0034722
        k(  328) = (   0.1250000   0.2500000   0.0000000), wk =   0.0034722
        k(  329) = (   0.1250000   0.2916667   0.0000000), wk =   0.0034722
        k(  330) = (   0.1250000   0.3333333   0.0000000), wk =   0.0034722
        k(  331) = (   0.1250000   0.3750000   0.0000000), wk =   0.0034722
        k(  332) = (   0.1250000   0.4166667   0.0000000), wk =   0.0034722
        k(  333) = (   0.1666667   0.1666667   0.0000000), wk =   0.0034722
        k(  334) = (   0.1666667   0.2083333   0.0000000), wk =   0.0034722
        k(  335) = (   0.1666667   0.2500000   0.0000000), wk =   0.0034722
        k(  336) = (   0.1666667   0.2916667   0.0000000), wk =   0.0034722
        k(  337) = (   0.1666667   0.3333333   0.0000000), wk =   0.0034722
        k(  338) = (   0.1666667   0.3750000   0.0000000), wk =   0.0034722
        k(  339) = (   0.1666667   0.4166667   0.0000000), wk =   0.0034722
        k(  340) = (   0.2083333   0.2083333   0.0000000), wk =   0.0034722
        k(  341) = (   0.2083333   0.2500000   0.0000000), wk =   0.0034722
        k(  342) = (   0.2083333   0.2916667   0.0000000), wk =   0.0034722
        k(  343) = (   0.2083333   0.3333333   0.0000000), wk =   0.0034722
        k(  344) = (   0.2083333   0.3750000   0.0000000), wk =   0.0034722
        k(  345) = (   0.2500000   0.2500000   0.0000000), wk =   0.0034722
        k(  346) = (   0.2500000   0.2916667   0.0000000), wk =   0.0034722
        k(  347) = (   0.2500000   0.3333333   0.0000000), wk =   0.0034722
        k(  348) = (   0.2500000   0.3750000   0.0000000), wk =   0.0034722
        k(  349) = (   0.2916667   0.2916667   0.0000000), wk =   0.0034722
        k(  350) = (   0.2916667   0.3333333   0.0000000), wk =   0.0034722
        k(  351) = (   0.3333333   0.3333333   0.0000000), wk =   0.0034722
        k(  352) = (  -0.0416667   0.0416667   0.0000000), wk =   0.0034722
        k(  353) = (   0.0416667   0.0000000   0.0000000), wk =   0.0034722
        k(  354) = (  -0.0833333   0.0833333   0.0000000), wk =   0.0034722
        k(  355) = (   0.0833333   0.0000000   0.0000000), wk =   0.0034722
        k(  356) = (  -0.1250000   0.1250000   0.0000000), wk =   0.0034722
        k(  357) = (   0.1250000   0.0000000   0.0000000), wk =   0.0034722
        k(  358) = (  -0.1666667   0.1666667   0.0000000), wk =   0.0034722
        k(  359) = (   0.1666667   0.0000000   0.0000000), wk =   0.0034722
        k(  360) = (  -0.2083333   0.2083333   0.0000000), wk =   0.0034722
        k(  361) = (   0.2083333   0.0000000   0.0000000), wk =   0.0034722
        k(  362) = (  -0.2500000   0.2500000   0.0000000), wk =   0.0034722
        k(  363) = (   0.2500000   0.0000000   0.0000000), wk =   0.0034722
        k(  364) = (  -0.2916667   0.2916667   0.0000000), wk =   0.0034722
        k(  365) = (   0.2916667   0.0000000   0.0000000), wk =   0.0034722
        k(  366) = (  -0.3333333   0.3333333   0.0000000), wk =   0.0034722
        k(  367) = (   0.3333333   0.0000000   0.0000000), wk =   0.0034722
        k(  368) = (  -0.3750000   0.3750000   0.0000000), wk =   0.0034722
        k(  369) = (   0.3750000  -0.0000000   0.0000000), wk =   0.0034722
        k(  370) = (  -0.4166667   0.4166667   0.0000000), wk =   0.0034722
        k(  371) = (   0.4166667   0.0000000   0.0000000), wk =   0.0034722
        k(  372) = (  -0.4583333   0.4583333   0.0000000), wk =   0.0034722
        k(  373) = (   0.4583333  -0.0000000   0.0000000), wk =   0.0034722
        k(  374) = (   0.5000000  -0.5000000   0.0000000), wk =   0.0017361
        k(  375) = (  -0.5000000   0.0000000   0.0000000), wk =   0.0017361
        k(  376) = (  -0.0416667   0.0833333   0.0000000), wk =   0.0034722
        k(  377) = (   0.0833333  -0.0416667   0.0000000), wk =   0.0034722
        k(  378) = (  -0.0416667   0.1250000   0.0000000), wk =   0.0034722
        k(  379) = (  -0.0833333   0.1250000   0.0000000), wk =   0.0034722
        k(  380) = (   0.1250000  -0.0416667   0.0000000), wk =   0.0034722
        k(  381) = (  -0.0833333  -0.0416667   0.0000000), wk =   0.0034722
        k(  382) = (   0.1250000  -0.0833333   0.0000000), wk =   0.0034722
        k(  383) = (  -0.0416667   0.1666667   0.0000000), wk =   0.0034722
        k(  384) = (  -0.1250000   0.1666667   0.0000000), wk =   0.0034722
        k(  385) = (   0.1666667  -0.0416667   0.0000000), wk =   0.0034722
        k(  386) = (  -0.1250000  -0.0416667   0.0000000), wk =   0.0034722
        k(  387) = (   0.1666667  -0.1250000   0.0000000), wk =   0.0034722
        k(  388) = (  -0.0416667   0.2083333   0.0000000), wk =   0.0034722
        k(  389) = (  -0.1666667   0.2083333   0.0000000), wk =   0.0034722
        k(  390) = (   0.2083333  -0.0416667   0.0000000), wk =   0.0034722
        k(  391) = (  -0.1666667  -0.0416667   0.0000000), wk =   0.0034722
        k(  392) = (   0.2083333  -0.1666667   0.0000000), wk =   0.0034722
        k(  393) = (  -0.0416667   0.2500000   0.0000000), wk =   0.0034722
        k(  394) = (  -0.2083333   0.2500000   0.0000000), wk =   0.0034722
        k(  395) = (   0.2500000  -0.0416667   0.0000000), wk =   0.0034722
        k(  396) = (  -0.2083333  -0.0416667   0.0000000), wk =   0.0034722
        k(  397) = (   0.2500000  -0.2083333   0.0000000), wk =   0.0034722
        k(  398) = (  -0.0416667   0.2916667   0.0000000), wk =   0.0034722
        k(  399) = (  -0.2500000   0.2916667   0.0000000), wk =   0.0034722
        k(  400) = (   0.2916667  -0.0416667   0.0000000), wk =   0.0034722
        k(  401) = (  -0.2500000  -0.0416667   0.0000000), wk =   0.0034722
        k(  402) = (   0.2916667  -0.2500000   0.0000000), wk =   0.0034722
        k(  403) = (  -0.0416667   0.3333333   0.0000000), wk =   0.0034722
        k(  404) = (  -0.2916667   0.3333333   0.0000000), wk =   0.0034722
        k(  405) = (   0.3333333  -0.0416667   0.0000000), wk =   0.0034722
        k(  406) = (  -0.2916667  -0.0416667   0.0000000), wk =   0.0034722
[...]
     0.0000   0.0000   0.0000   0.0000

          k =-0.1667 0.4811 0.0000 (  3041 PWs)   bands (ev):

   -15.5897 -15.5090 -11.9095 -11.8523  -8.5585  -8.5252  -3.4446  -2.8290
     1.7516   2.2857   8.9533   9.4051

     occupation numbers 
     1.0000   1.0000   1.0000   1.0000   1.0000   1.0000   1.0000   1.0000
     0.0000   0.0000   0.0000   0.0000

          k =-0.3333 0.3849 0.0000 (  3041 PWs)   bands (ev):

   -15.5897 -15.5090 -11.9091 -11.8519  -8.5590  -8.5256  -3.4446  -2.8296
     1.7523   2.2860   8.9533   9.4073

     occupation numbers 
     1.0000   1.0000   1.0000   1.0000   1.0000   1.0000   1.0000   1.0000
     0.0000   0.0000   0.0000   0.0000

          k = 0.5000 0.0962 0.0000 (  3041 PWs)   bands (ev):

   -15.5897 -15.5090 -11.9090 -11.8518  -8.5591  -8.5257  -3.4447  -2.8297
     1.7521   2.2868   8.9532   9.4039

     occupation numbers 
     1.0000   1.0000   1.0000   1.0000   1.0000   1.0000   1.0000   1.0000
     0.0000   0.0000   0.0000   0.0000

          k =-0.3333-0.3849 0.0000 (  3041 PWs)   bands (ev):

   -15.5897 -15.5090 -11.9091 -11.8519  -8.5590  -8.5256  -3.4446  -2.8296
     1.7523   2.2860   8.9533   9.4073

     occupation numbers 
     1.0000   1.0000   1.0000   1.0000   1.0000   1.0000   1.0000   1.0000
     0.0000   0.0000   0.0000   0.0000

          k = 0.5000-0.0962 0.0000 (  3041 PWs)   bands (ev):

   -15.5897 -15.5090 -11.9090 -11.8518  -8.5591  -8.5257  -3.4447  -2.8297
     1.7521   2.2868   8.9532   9.4039

     occupation numbers 
     1.0000   1.0000   1.0000   1.0000   1.0000   1.0000   1.0000   1.0000
     0.0000   0.0000   0.0000   0.0000

          k =-0.1667 0.5292 0.0000 (  3024 PWs)   bands (ev):

   -14.8482 -14.7713 -12.7997 -12.7381  -8.6970  -8.6632  -2.8100  -2.2345
     0.9820   1.5659   9.3062   9.5314

     occupation numbers 
     1.0000   1.0000   1.0000   1.0000   1.0000   1.0000   1.0000   1.0000
     0.0000   0.0000   0.0000   0.0000

          k =-0.3750 0.4090 0.0000 (  3024 PWs)   bands (ev):

   -14.8483 -14.7714 -12.7992 -12.7376  -8.6974  -8.6637  -2.8099  -2.2357
     0.9831   1.5664   9.3053   9.5321

     occupation numbers 
     1.0000   1.0000   1.0000   1.0000   1.0000   1.0000   1.0000   1.0000
     0.0000   0.0000   0.0000   0.0000

          k = 0.5417 0.1203 0.0000 (  3024 PWs)   bands (ev):

   -14.8483 -14.7714 -12.7992 -12.7375  -8.6975  -8.6637  -2.8099  -2.2358
     0.9830   1.5668   9.3052   9.5319

     occupation numbers 
     1.0000   1.0000   1.0000   1.0000   1.0000   1.0000   1.0000   1.0000
     0.0000   0.0000   0.0000   0.0000

          k =-0.3750-0.4090 0.0000 (  3024 PWs)   bands (ev):

   -14.8483 -14.7714 -12.7992 -12.7376  -8.6974  -8.6637  -2.8099  -2.2357
     0.9831   1.5664   9.3053   9.5321

     occupation numbers 
     1.0000   1.0000   1.0000   1.0000   1.0000   1.0000   1.0000   1.0000
     0.0000   0.0000   0.0000   0.0000

          k = 0.5417-0.1203 0.0000 (  3024 PWs)   bands (ev):

   -14.8483 -14.7714 -12.7992 -12.7375  -8.6975  -8.6637  -2.8099  -2.2358
     0.9830   1.5668   9.3052   9.5319

     occupation numbers 
     1.0000   1.0000   1.0000   1.0000   1.0000   1.0000   1.0000   1.0000
     0.0000   0.0000   0.0000   0.0000

          k =-0.4167 0.4330 0.0000 (  3008 PWs)   bands (ev):

   -14.3578 -14.2823 -13.3404 -13.2774  -8.7432  -8.7094  -2.5251  -1.9748
     0.6528   1.2625   9.2914   9.5112

     occupation numbers 
     1.0000   1.0000   1.0000   1.0000   1.0000   1.0000   1.0000   1.0000
     0.0000   0.0000   0.0000   0.0000

          k = 0.5833 0.1443 0.0000 (  3008 PWs)   bands (ev):

   -14.3578 -14.2823 -13.3404 -13.2774  -8.7432  -8.7094  -2.5251  -1.9748
     0.6528   1.2625   9.2914   9.5112

     occupation numbers 
     1.0000   1.0000   1.0000   1.0000   1.0000   1.0000   1.0000   1.0000
     0.0000   0.0000   0.0000   0.0000

          k =-0.2083 0.3608 0.0000 (  3037 PWs)   bands (ev):

   -17.0046 -16.9156  -9.7296  -9.6848  -8.2347  -8.2012  -4.9360  -4.2532
     3.8172   4.2366   7.0073   7.4340

     occupation numbers 
     1.0000   1.0000   1.0000   1.0000   1.0000   1.0000   1.0000   1.0000
     0.0000   0.0000   0.0000   0.0000

          k = 0.4167-0.0000 0.0000 (  3037 PWs)   bands (ev):

   -17.0046 -16.9156  -9.7290  -9.6841  -8.2355  -8.2019  -4.9361  -4.2534
     3.8169   4.2378   7.0073   7.4339

     occupation numbers 
     1.0000   1.0000   1.0000   1.0000   1.0000   1.0000   1.0000   1.0000
     0.0000   0.0000   0.0000   0.0000

          k =-0.2083 0.4090 0.0000 (  3045 PWs)   bands (ev):

   -16.3836 -16.2984 -10.4846 -10.4355  -8.7846  -8.7485  -4.2428  -3.5862
     2.9015   3.3489   7.8672   8.2898

     occupation numbers 
     1.0000   1.0000   1.0000   1.0000   1.0000   1.0000   1.0000   1.0000
     0.0000   0.0000   0.0000   0.0000

          k =-0.2500 0.3849 0.0000 (  3045 PWs)   bands (ev):

   -16.3836 -16.2984 -10.4844 -10.4353  -8.7849  -8.7487  -4.2428  -3.5863
     2.9016   3.3490   7.8672   8.2899

     occupation numbers 
     1.0000   1.0000   1.0000   1.0000   1.0000   1.0000   1.0000   1.0000
     0.0000   0.0000   0.0000   0.0000

          k = 0.4583 0.0241 0.0000 (  3045 PWs)   bands (ev):

   -16.3836 -16.2984 -10.4840 -10.4348  -8.7854  -8.7492  -4.2429  -3.5865
     2.9013   3.3503   7.8672   8.2897

     occupation numbers 
     1.0000   1.0000   1.0000   1.0000   1.0000   1.0000   1.0000   1.0000
     0.0000   0.0000   0.0000   0.0000

          k =-0.2500-0.3849 0.0000 (  3045 PWs)   bands (ev):

   -16.3836 -16.2984 -10.4844 -10.4353  -8.7849  -8.7487  -4.2428  -3.5863
     2.9016   3.3490   7.8672   8.2899

     occupation numbers 
     1.0000   1.0000   1.0000   1.0000   1.0000   1.0000   1.0000   1.0000
     0.0000   0.0000   0.0000   0.0000

          k = 0.4583-0.0241 0.0000 (  3045 PWs)   bands (ev):

   -16.3836 -16.2984 -10.4840 -10.4348  -8.7854  -8.7492  -4.2429  -3.5865
     2.9013   3.3503   7.8672   8.2897

     occupation numbers 
     1.0000   1.0000   1.0000   1.0000   1.0000   1.0000   1.0000   1.0000
     0.0000   0.0000   0.0000   0.0000

          k =-0.2083 0.4571 0.0000 (  3026 PWs)   bands (ev):

   -15.7000 -15.6188 -11.3336 -11.2796  -9.1561  -9.1183  -3.5109  -2.8857
     1.9914   2.4742   8.8184   9.2272

     occupation numbers 
     1.0000   1.0000   1.0000   1.0000   1.0000   1.0000   1.0000   1.0000
     0.0000   0.0000   0.0000   0.0000

          k =-0.2917 0.4090 0.0000 (  3026 PWs)   bands (ev):

   -15.7000 -15.6188 -11.3333 -11.2793  -9.1564  -9.1186  -3.5109  -2.8860
     1.9917   2.4745   8.8184   9.2273

     occupation numbers 
     1.0000   1.0000   1.0000   1.0000   1.0000   1.0000   1.0000   1.0000
     0.0000   0.0000   0.0000   0.0000

          k = 0.5000 0.0481 0.0000 (  3026 PWs)   bands (ev):

   -15.7000 -15.6188 -11.3331 -11.2790  -9.1567  -9.1189  -3.5110  -2.8863
     1.9914   2.4756   8.8184   9.2268

     occupation numbers 
     1.0000   1.0000   1.0000   1.0000   1.0000   1.0000   1.0000   1.0000
     0.0000   0.0000   0.0000   0.0000

          k =-0.2917-0.4090 0.0000 (  3026 PWs)   bands (ev):

   -15.7000 -15.6188 -11.3333 -11.2793  -9.1564  -9.1186  -3.5109  -2.8860
     1.9917   2.4745   8.8184   9.2273

     occupation numbers 
     1.0000   1.0000   1.0000   1.0000   1.0000   1.0000   1.0000   1.0000
     0.0000   0.0000   0.0000   0.0000

          k = 0.5000-0.0481 0.0000 (  3026 PWs)   bands (ev):

   -15.7000 -15.6188 -11.3331 -11.2790  -9.1567  -9.1189  -3.5110  -2.8863
     1.9914   2.4756   8.8184   9.2268

     occupation numbers 
     1.0000   1.0000   1.0000   1.0000   1.0000   1.0000   1.0000   1.0000
     0.0000   0.0000   0.0000   0.0000

          k =-0.2083 0.5052 0.0000 (  3018 PWs)   bands (ev):

   -14.9709 -14.8938 -12.2045 -12.1457  -9.3827  -9.3441  -2.7988  -2.2101
     1.1537   1.6775   9.8316  10.1425

     occupation numbers 
     1.0000   1.0000   1.0000   1.0000   1.0000   1.0000   1.0000   1.0000
     0.0000   0.0000   0.0000   0.0000

          k =-0.3333 0.4330 0.0000 (  3018 PWs)   bands (ev):

   -14.9710 -14.8939 -12.2041 -12.1453  -9.3831  -9.3444  -2.7987  -2.2109
     1.1543   1.6780   9.8316  10.1444

     occupation numbers 
     1.0000   1.0000   1.0000   1.0000   1.0000   1.0000   1.0000   1.0000
     0.0000   0.0000   0.0000   0.0000

          k = 0.5417 0.0722 0.0000 (  3018 PWs)   bands (ev):

   -14.9710 -14.8939 -12.2040 -12.1451  -9.3833  -9.3446  -2.7988  -2.2111
     1.1540   1.6789   9.8314  10.1357

     occupation numbers 
     1.0000   1.0000   1.0000   1.0000   1.0000   1.0000   1.0000   1.0000
     0.0000   0.0000   0.0000   0.0000

          k =-0.3333-0.4330 0.0000 (  3018 PWs)   bands (ev):

   -14.9710 -14.8939 -12.2041 -12.1453  -9.3831  -9.3444  -2.7987  -2.2109
     1.1543   1.6780   9.8316  10.1444

     occupation numbers 
     1.0000   1.0000   1.0000   1.0000   1.0000   1.0000   1.0000   1.0000
     0.0000   0.0000   0.0000   0.0000

          k = 0.5417-0.0722 0.0000 (  3018 PWs)   bands (ev):

   -14.9710 -14.8939 -12.2040 -12.1451  -9.3833  -9.3446  -2.7988  -2.2111
     1.1540   1.6789   9.8314  10.1357

     occupation numbers 
     1.0000   1.0000   1.0000   1.0000   1.0000   1.0000   1.0000   1.0000
     0.0000   0.0000   0.0000   0.0000

          k =-0.2083 0.5533 0.0000 (  3019 PWs)   bands (ev):

   -14.2807 -14.2066 -12.9740 -12.9118  -9.4907  -9.4516  -2.2730  -1.7193
     0.5627   1.1245  10.1005  10.4325

     occupation numbers 
     1.0000   1.0000   1.0000   1.0000   1.0000   1.0000   1.0000   1.0000
     0.0000   0.0000   0.0000   0.0000

          k =-0.3750 0.4571 0.0000 (  3019 PWs)   bands (ev):

   -14.2808 -14.2069 -12.9734 -12.9112  -9.4912  -9.4521  -2.2727  -1.7208
     0.5638   1.1251  10.1001  10.4325

     occupation numbers 
     1.0000   1.0000   1.0000   1.0000   1.0000   1.0000   1.0000   1.0000
     0.0000   0.0000   0.0000   0.0000

          k = 0.5833 0.0962 0.0000 (  3019 PWs)   bands (ev):

   -14.2808 -14.2069 -12.9733 -12.9111  -9.4912  -9.4521  -2.2727  -1.7209
     0.5636   1.1255  10.0997  10.4324

     occupation numbers 
     1.0000   1.0000   1.0000   1.0000   1.0000   1.0000   1.0000   1.0000
     0.0000   0.0000   0.0000   0.0000

          k =-0.3750-0.4571 0.0000 (  3019 PWs)   bands (ev):

   -14.2808 -14.2069 -12.9734 -12.9112  -9.4912  -9.4521  -2.2727  -1.7208
     0.5638   1.1251  10.1001  10.4325

     occupation numbers 
     1.0000   1.0000   1.0000   1.0000   1.0000   1.0000   1.0000   1.0000
     0.0000   0.0000   0.0000   0.0000

          k = 0.5833-0.0962 0.0000 (  3019 PWs)   bands (ev):

   -14.2808 -14.2069 -12.9733 -12.9111  -9.4912  -9.4521  -2.2727  -1.7209
     0.5636   1.1255  10.0997  10.4324

     occupation numbers 
     1.0000   1.0000   1.0000   1.0000   1.0000   1.0000   1.0000   1.0000
     0.0000   0.0000   0.0000   0.0000

          k =-0.2500 0.4330 0.0000 (  3033 PWs)   bands (ev):

   -15.7371 -15.6558 -11.0356 -10.9833  -9.4640  -9.4243  -3.5344  -2.9060
     2.0820   2.5446   8.7668   9.1635

     occupation numbers 
     1.0000   1.0000   1.0000   1.0000   1.0000   1.0000   1.0000   1.0000
     0.0000   0.0000   0.0000   0.0000

          k = 0.5000-0.0000 0.0000 (  3033 PWs)   bands (ev):

   -15.7371 -15.6558 -11.0351 -10.9826  -9.4646  -9.4248  -3.5345  -2.9063
     2.0816   2.5460   8.7668   9.1630

     occupation numbers 
     1.0000   1.0000   1.0000   1.0000   1.0000   1.0000   1.0000   1.0000
     0.0000   0.0000   0.0000   0.0000

          k =-0.2500 0.4811 0.0000 (  3019 PWs)   bands (ev):

   -15.0370 -14.9597 -11.7105 -11.6541  -9.9250  -9.8830  -2.8007  -2.2042
     1.2689   1.7545   9.7398   9.8871

     occupation numbers 
     1.0000   1.0000   1.0000   1.0000   1.0000   1.0000   1.0000   1.0000
     0.0000   0.0000   0.0000   0.0000

          k =-0.2917 0.4571 0.0000 (  3019 PWs)   bands (ev):

   -15.0370 -14.9597 -11.7103 -11.6539  -9.9252  -9.8832  -2.8007  -2.2045
     1.2691   1.7547   9.7398   9.8872

     occupation numbers 
     1.0000   1.0000   1.0000   1.0000   1.0000   1.0000   1.0000   1.0000
     0.0000   0.0000   0.0000   0.0000

          k = 0.5417 0.0241 0.0000 (  3019 PWs)   bands (ev):

   -15.0370 -14.9597 -11.7100 -11.6535  -9.9256  -9.8835  -2.8008  -2.2048
     1.2687   1.7560   9.7396   9.8842

     occupation numbers 
     1.0000   1.0000   1.0000   1.0000   1.0000   1.0000   1.0000   1.0000
     0.0000   0.0000   0.0000   0.0000

          k =-0.2917-0.4571 0.0000 (  3019 PWs)   bands (ev):

   -15.0370 -14.9597 -11.7103 -11.6539  -9.9252  -9.8832  -2.8007  -2.2045
     1.2691   1.7547   9.7398   9.8872

     occupation numbers 
     1.0000   1.0000   1.0000   1.0000   1.0000   1.0000   1.0000   1.0000
     0.0000   0.0000   0.0000   0.0000

          k = 0.5417-0.0241 0.0000 (  3019 PWs)   bands (ev):

   -15.0370 -14.9597 -11.7100 -11.6535  -9.9256  -9.8835  -2.8008  -2.2048
     1.2687   1.7560   9.7396   9.8842

     occupation numbers 
     1.0000   1.0000   1.0000   1.0000   1.0000   1.0000   1.0000   1.0000
     0.0000   0.0000   0.0000   0.0000

          k =-0.2500 0.5292 0.0000 (  3013 PWs)   bands (ev):

   -14.3158 -14.2424 -12.4553 -12.3948 -10.1699 -10.1267  -2.1227  -1.5607
     0.5426   1.0578   9.7434  10.7484

     occupation numbers 
     1.0000   1.0000   1.0000   1.0000   1.0000   1.0000   1.0000   1.0000
     0.0000   0.0000   0.0000   0.0000

          k =-0.3333 0.4811 0.0000 (  3013 PWs)   bands (ev):

   -14.3158 -14.2425 -12.4549 -12.3944 -10.1703 -10.1270  -2.1225  -1.5616
     0.5431   1.0583   9.7431  10.7486

     occupation numbers 
     1.0000   1.0000   1.0000   1.0000   1.0000   1.0000   1.0000   1.0000
     0.0000   0.0000   0.0000   0.0000

          k = 0.5833 0.0481 0.0000 (  3013 PWs)   bands (ev):

   -14.3159 -14.2425 -12.4547 -12.3942 -10.1705 -10.1272  -2.1227  -1.5618
     0.5428   1.0593   9.7428  10.7476

     occupation numbers 
     1.0000   1.0000   1.0000   1.0000   1.0000   1.0000   1.0000   1.0000
     0.0000   0.0000   0.0000   0.0000

          k =-0.3333-0.4811 0.0000 (  3013 PWs)   bands (ev):

   -14.3158 -14.2425 -12.4549 -12.3944 -10.1703 -10.1270  -2.1225  -1.5616
     0.5431   1.0583   9.7431  10.7486

     occupation numbers 
     1.0000   1.0000   1.0000   1.0000   1.0000   1.0000   1.0000   1.0000
     0.0000   0.0000   0.0000   0.0000

          k = 0.5833-0.0481 0.0000 (  3013 PWs)   bands (ev):

   -14.3159 -14.2425 -12.4547 -12.3942 -10.1705 -10.1272  -2.1227  -1.5618
     0.5428   1.0593   9.7428  10.7476

     occupation numbers 
     1.0000   1.0000   1.0000   1.0000   1.0000   1.0000   1.0000   1.0000
     0.0000   0.0000   0.0000   0.0000

          k =-0.3750 0.5052 0.0000 (  3008 PWs)   bands (ev):

   -13.8321 -13.7607 -12.9537 -12.8913 -10.2458 -10.2021  -1.7812  -1.2430
     0.1859   0.7216   9.6827  11.1210

     occupation numbers 
     1.0000   1.0000   1.0000   1.0000   1.0000   1.0000   1.0000   1.0000
     0.0000   0.0000   0.0000   0.0000

          k = 0.6250 0.0722 0.0000 (  3008 PWs)   bands (ev):

   -13.8321 -13.7607 -12.9537 -12.8913 -10.2458 -10.2021  -1.7812  -1.2430
     0.1859   0.7216   9.6827  11.1210

     occupation numbers 
     1.0000   1.0000   1.0000   1.0000   1.0000   1.0000   1.0000   1.0000
     0.0000   0.0000   0.0000   0.0000

          k =-0.2917 0.5052 0.0000 (  3011 PWs)   bands (ev):

   -14.3359 -14.2627 -12.1643 -12.1048 -10.5081 -10.4634  -2.0740  -1.5076
     0.5439   1.0396   9.5975  10.7066

     occupation numbers 
     1.0000   1.0000   1.0000   1.0000   1.0000   1.0000   1.0000   1.0000
     0.0000   0.0000   0.0000   0.0000

          k = 0.5833-0.0000 0.0000 (  3011 PWs)   bands (ev):

   -14.3360 -14.2628 -12.1639 -12.1042 -10.5086 -10.4638  -2.0741  -1.5082
     0.5435   1.0411   9.5971  10.7052

     occupation numbers 
     1.0000   1.0000   1.0000   1.0000   1.0000   1.0000   1.0000   1.0000
     0.0000   0.0000   0.0000   0.0000

          k =-0.2917 0.5533 0.0000 (  3000 PWs)   bands (ev):

   -13.6637 -13.5940 -12.7149 -12.6521 -10.8015 -10.7555  -1.4346  -0.8960
    -0.0917   0.4213   9.4181  11.0080

     occupation numbers 
     1.0000   1.0000   1.0000   1.0000   1.0000   1.0000   1.0000   1.0000
     0.0000   0.0000   0.0000   0.0000

          k =-0.3333 0.5292 0.0000 (  3000 PWs)   bands (ev):

   -13.6639 -13.5942 -12.7145 -12.6518 -10.8018 -10.7557  -1.4344  -0.8972
    -0.0911   0.4219   9.4180  11.0079

     occupation numbers 
     1.0000   1.0000   1.0000   1.0000   1.0000   1.0000   1.0000   1.0000
     0.0000   0.0000   0.0000   0.0000

          k = 0.6250 0.0241 0.0000 (  3000 PWs)   bands (ev):

   -13.6640 -13.5944 -12.7144 -12.6514 -10.8020 -10.7558  -1.4346  -0.8973
    -0.0917   0.4229   9.4179  11.0076

     occupation numbers 
     1.0000   1.0000   1.0000   1.0000   1.0000   1.0000   1.0000   1.0000
     0.0000   0.0000   0.0000   0.0000

          k =-0.3333-0.5292 0.0000 (  3000 PWs)   bands (ev):

   -13.6639 -13.5942 -12.7145 -12.6518 -10.8018 -10.7557  -1.4344  -0.8972
    -0.0911   0.4219   9.4180  11.0079

     occupation numbers 
     1.0000   1.0000   1.0000   1.0000   1.0000   1.0000   1.0000   1.0000
     0.0000   0.0000   0.0000   0.0000

          k = 0.6250-0.0241 0.0000 (  3000 PWs)   bands (ev):

   -13.6640 -13.5944 -12.7144 -12.6514 -10.8020 -10.7558  -1.4346  -0.8973
    -0.0917   0.4229   9.4179  11.0076

     occupation numbers 
     1.0000   1.0000   1.0000   1.0000   1.0000   1.0000   1.0000   1.0000
     0.0000   0.0000   0.0000   0.0000

     the Fermi energy is    -0.5323 ev

     Writing output data file g.dos1.save

     init_run     :      1.99s CPU      2.03s WALL (       1 calls)
     electrons    :    491.87s CPU    494.11s WALL (       1 calls)

     Called by init_run:
     wfcinit      :      0.00s CPU      0.00s WALL (       1 calls)
     potinit      :      0.68s CPU      0.70s WALL (       1 calls)

     Called by electrons:
     c_bands      :    491.84s CPU    494.08s WALL (       1 calls)
     v_of_rho     :      0.60s CPU      0.62s WALL (       1 calls)
     v_h          :      0.01s CPU      0.01s WALL (       1 calls)
     v_xc         :      0.59s CPU      0.61s WALL (       1 calls)
     newd         :      0.32s CPU      0.32s WALL (       1 calls)

     Called by c_bands:
     init_us_2    :      0.64s CPU      0.65s WALL (     580 calls)
     cegterg      :    462.40s CPU    464.54s WALL (    1450 calls)

     Called by sum_band:

     Called by *egterg:
     h_psi        :    257.54s CPU    259.24s WALL (   25888 calls)
     s_psi        :     37.73s CPU     37.86s WALL (   25888 calls)
     g_psi        :      2.50s CPU      2.51s WALL (   23858 calls)
     cdiaghg      :     17.28s CPU     17.35s WALL (   24438 calls)
     cegterg:over :     67.91s CPU     68.08s WALL (   23858 calls)
     cegterg:upda :     49.62s CPU     49.72s WALL (   23858 calls)
     cegterg:last :     40.11s CPU     40.15s WALL (    3789 calls)

     Called by h_psi:
     h_psi:vloc   :    176.53s CPU    177.88s WALL (   25888 calls)
     h_psi:vnl    :     79.68s CPU     80.03s WALL (   25888 calls)
     add_vuspsi   :     37.99s CPU     38.11s WALL (   25888 calls)

     General routines
     calbec       :     41.51s CPU     41.77s WALL (   25888 calls)
     fft          :      0.22s CPU      0.22s WALL (      22 calls)
     ffts         :      0.00s CPU      0.00s WALL (       2 calls)
     fftw         :    127.52s CPU    128.50s WALL (  281470 calls)
     interpolate  :      0.02s CPU      0.02s WALL (       2 calls)

     Parallel routines
     fft_scatter  :     20.40s CPU     20.55s WALL (  281494 calls)

     PWSCF        :  8m16.69s CPU     8m19.55s WALL


   This run was terminated on:   7:18:42   1May2020            

=------------------------------------------------------------------------------=
   JOB DONE.
=------------------------------------------------------------------------------=
