
     Program PROJWFC v.5.1 starts on 21Apr2020 at 15:23: 7 

     This program is part of the open-source Quantum ESPRESSO suite
     for quantum simulation of materials; please cite
         "P. Giannozzi et al., J. Phys.:Condens. Matter 21 395502 (2009);
          URL http://www.quantum-espresso.org", 
     in publications or presentations arising from this work. More details at
     http://www.quantum-espresso.org/quote

     Parallel version (MPI), running on     1 processors

   Info: using nr1, nr2, nr3 values from input

   Info: using nr1s, nr2s, nr3s values from input

     IMPORTANT: XC functional enforced from input :
     Exchange-correlation      = PBE ( 1  4  3  4 0)
     Any further DFT definition will be discarded
     Please, verify this is what you really want

               file C.pbe-rrkjus.UPF: wavefunction(s)  2S 2P renormalized

     G-vector sticks info
     --------------------
     sticks:   dense  smooth     PW     G-vecs:    dense   smooth      PW
     Sum         595     241     85                96043    24369    4587

     Generating pointlists ...
     new r_m :   0.2381 (alat units)  1.1104 (a.u.) for type    1

     negative rho (up, down):  7.106E-07 7.106E-07

     Gaussian broadening (read from input): ngauss,degauss=   0    0.010000


     Calling projwave .... 

     Atomic states used for projection
     (read from pseudopotential files):

     state #   1: atom   1 (C  ), wfc  1 (l=0 m= 1)
     state #   2: atom   1 (C  ), wfc  2 (l=1 m= 1)
     state #   3: atom   1 (C  ), wfc  2 (l=1 m= 2)
     state #   4: atom   1 (C  ), wfc  2 (l=1 m= 3)
     state #   5: atom   2 (C  ), wfc  1 (l=0 m= 1)
     state #   6: atom   2 (C  ), wfc  2 (l=1 m= 1)
     state #   7: atom   2 (C  ), wfc  2 (l=1 m= 2)
     state #   8: atom   2 (C  ), wfc  2 (l=1 m= 3)
     state #   9: atom   3 (C  ), wfc  1 (l=0 m= 1)
     state #  10: atom   3 (C  ), wfc  2 (l=1 m= 1)
     state #  11: atom   3 (C  ), wfc  2 (l=1 m= 2)
     state #  12: atom   3 (C  ), wfc  2 (l=1 m= 3)
     state #  13: atom   4 (C  ), wfc  1 (l=0 m= 1)
     state #  14: atom   4 (C  ), wfc  2 (l=1 m= 1)
     state #  15: atom   4 (C  ), wfc  2 (l=1 m= 2)
     state #  16: atom   4 (C  ), wfc  2 (l=1 m= 3)

 k =   0.0000000000  0.0000000000  0.0000000000
==== e(   1) =   -20.02041 eV ==== 
     psi = 0.244*[#   1]+0.244*[#   5]+0.244*[#   9]+0.244*[#  13]+
    |psi|^2 = 0.979
==== e(   2) =   -19.91186 eV ==== 
     psi = 0.246*[#   1]+0.246*[#   5]+0.246*[#   9]+0.246*[#  13]+
    |psi|^2 = 0.986
==== e(   3) =    -8.47651 eV ==== 
     psi = 0.237*[#   2]+0.237*[#   6]+0.237*[#  10]+0.237*[#  14]+
    |psi|^2 = 0.948
==== e(   4) =    -7.68844 eV ==== 
     psi = 0.241*[#   2]+0.241*[#   6]+0.241*[#  10]+0.241*[#  14]+
    |psi|^2 = 0.964
==== e(   5) =    -3.56856 eV ==== 
     psi = 0.249*[#  12]+0.249*[#  16]+0.249*[#   4]+0.249*[#   8]+
    |psi|^2 = 0.997
==== e(   6) =    -3.56686 eV ==== 
     psi = 0.249*[#  11]+0.249*[#  15]+0.249*[#   3]+0.249*[#   7]+
    |psi|^2 = 0.997
==== e(   7) =    -3.55680 eV ==== 
     psi = 0.249*[#   4]+0.249*[#   8]+0.249*[#  12]+0.249*[#  16]+
    |psi|^2 = 0.997
==== e(   8) =    -3.55523 eV ==== 
     psi = 0.249*[#   3]+0.249*[#   7]+0.249*[#  11]+0.249*[#  15]+
    |psi|^2 = 0.997
==== e(   9) =     2.89631 eV ==== 
     psi = 0.002*[#   1]+0.002*[#   5]+0.002*[#   9]+0.002*[#  13]+
    |psi|^2 = 0.013
==== e(  10) =     3.29538 eV ==== 
     psi = 0.005*[#   2]+0.005*[#   6]+0.005*[#  10]+0.005*[#  14]+
    |psi|^2 = 0.021
==== e(  11) =     4.01643 eV ==== 
     psi = 
    |psi|^2 = 0.002
==== e(  12) =     5.22388 eV ==== 
     psi = 0.002*[#   2]+0.002*[#   6]+0.002*[#  10]+0.002*[#  14]+
    |psi|^2 = 0.008

 k =   0.0000000000  0.0962250449  0.0000000000
==== e(   1) =   -19.85632 eV ==== 
     psi = 0.231*[#   1]+0.231*[#   5]+0.231*[#   9]+0.231*[#  13]+0.014*[#   4]+
          +0.014*[#   8]+0.014*[#  12]+0.014*[#  16]+
    |psi|^2 = 0.979
==== e(   2) =   -19.74890 eV ==== 
     psi = 0.233*[#   1]+0.233*[#   5]+0.233*[#   9]+0.233*[#  13]+0.013*[#   4]+
          +0.013*[#   8]+0.013*[#  12]+0.013*[#  16]+
    |psi|^2 = 0.985
==== e(   3) =    -8.27896 eV ==== 
     psi = 0.238*[#   2]+0.238*[#   6]+0.238*[#  10]+0.238*[#  14]+
    |psi|^2 = 0.952
==== e(   4) =    -7.49568 eV ==== 
     psi = 0.242*[#   2]+0.242*[#   6]+0.242*[#  10]+0.242*[#  14]+
    |psi|^2 = 0.968
==== e(   5) =    -4.21637 eV ==== 
     psi = 0.241*[#  12]+0.241*[#  16]+0.241*[#   4]+0.241*[#   8]+0.009*[#   1]+
          +0.009*[#   5]+0.009*[#   9]+0.009*[#  13]+
    |psi|^2 = 0.997
==== e(   6) =    -4.20066 eV ==== 
     psi = 0.241*[#   4]+0.241*[#   8]+0.241*[#  12]+0.241*[#  16]+0.009*[#   1]+
          +0.009*[#   5]+0.009*[#   9]+0.009*[#  13]+
    |psi|^2 = 0.997
==== e(   7) =    -3.90385 eV ==== 
     psi = 0.249*[#  11]+0.249*[#  15]+0.249*[#   3]+0.249*[#   7]+
    |psi|^2 = 0.997
==== e(   8) =    -3.89131 eV ==== 
     psi = 0.249*[#   3]+0.249*[#   7]+0.249*[#  11]+0.249*[#  15]+
    |psi|^2 = 0.997
==== e(   9) =     3.11684 eV ==== 
     psi = 0.005*[#   4]+0.005*[#   8]+0.005*[#  12]+0.005*[#  16]+0.001*[#   1]+
    |psi|^2 = 0.026
==== e(  10) =     3.51862 eV ==== 
     psi = 0.004*[#   2]+0.004*[#   6]+0.004*[#  10]+0.004*[#  14]+0.001*[#   4]+
          +0.001*[#   8]+0.001*[#  12]+0.001*[#  16]+
    |psi|^2 = 0.024
==== e(  11) =     4.24186 eV ==== 
     psi = 
    |psi|^2 = 0.005
==== e(  12) =     5.44778 eV ==== 
     psi = 0.001*[#   2]+0.001*[#   6]+0.001*[#  10]+0.001*[#  14]+
    |psi|^2 = 0.008

 k =   0.0000000000  0.1924500897  0.0000000000
==== e(   1) =   -19.36587 eV ==== 
     psi = 0.202*[#   1]+0.202*[#   5]+0.202*[#   9]+0.202*[#  13]+0.042*[#   4]+
          +0.042*[#   8]+0.042*[#  12]+0.042*[#  16]+
    |psi|^2 = 0.978
==== e(   2) =   -19.26173 eV ==== 
     psi = 0.205*[#   1]+0.205*[#   5]+0.205*[#   9]+0.205*[#  13]+0.041*[#   4]+
          +0.041*[#   8]+0.041*[#  12]+0.041*[#  16]+
    |psi|^2 = 0.984
==== e(   3) =    -7.69123 eV ==== 
     psi = 0.241*[#   2]+0.241*[#   6]+0.241*[#  10]+0.241*[#  14]+
    |psi|^2 = 0.964
==== e(   4) =    -6.92292 eV ==== 
     psi = 0.244*[#   2]+0.244*[#   6]+0.244*[#  10]+0.244*[#  14]+
    |psi|^2 = 0.977
==== e(   5) =    -5.84821 eV ==== 
     psi = 0.220*[#   4]+0.220*[#   8]+0.220*[#  12]+0.220*[#  16]+0.028*[#   1]+
          +0.028*[#   5]+0.028*[#   9]+0.028*[#  13]+
    |psi|^2 = 0.994
==== e(   6) =    -5.82290 eV ==== 
     psi = 0.221*[#   4]+0.221*[#   8]+0.221*[#  12]+0.221*[#  16]+0.028*[#   1]+
          +0.028*[#   5]+0.028*[#   9]+0.028*[#  13]+
    |psi|^2 = 0.996
==== e(   7) =    -4.69304 eV ==== 
     psi = 0.249*[#  11]+0.249*[#  15]+0.249*[#   3]+0.249*[#   7]+
    |psi|^2 = 0.997
==== e(   8) =    -4.67865 eV ==== 
     psi = 0.249*[#   3]+0.249*[#   7]+0.249*[#  11]+0.249*[#  15]+
    |psi|^2 = 0.997
==== e(   9) =     3.77811 eV ==== 
     psi = 0.010*[#   4]+0.010*[#   8]+0.010*[#  12]+0.010*[#  16]+
    |psi|^2 = 0.042
==== e(  10) =     4.18723 eV ==== 
     psi = 0.003*[#   2]+0.003*[#   4]+0.003*[#   6]+0.003*[#   8]+0.003*[#  10]+
          +0.003*[#  12]+0.003*[#  14]+0.003*[#  16]+
    |psi|^2 = 0.025
==== e(  11) =     4.91809 eV ==== 
     psi = 0.002*[#   4]+0.002*[#   8]+0.002*[#  12]+0.002*[#  16]+
    |psi|^2 = 0.007
==== e(  12) =     6.11839 eV ==== 
     psi = 0.001*[#   2]+0.001*[#   6]+0.001*[#  10]+0.001*[#  14]+
    |psi|^2 = 0.007

 k =   0.0000000000  0.2886751346  0.0000000000
==== e(   1) =   -18.55496 eV ==== 
     psi = 0.174*[#   1]+0.174*[#   5]+0.174*[#   9]+0.174*[#  13]+0.070*[#   4]+
          +0.070*[#   8]+0.070*[#  12]+0.070*[#  16]+
    |psi|^2 = 0.977
==== e(   2) =   -18.45613 eV ==== 
     psi = 0.177*[#   1]+0.177*[#   5]+0.177*[#   9]+0.177*[#  13]+0.069*[#   4]+
          +0.069*[#   8]+0.069*[#  12]+0.069*[#  16]+
    |psi|^2 = 0.984
==== e(   3) =    -7.94084 eV ==== 
     psi = 0.199*[#   4]+0.199*[#   8]+0.199*[#  12]+0.199*[#  16]+0.049*[#   1]+
          +0.049*[#   5]+0.049*[#   9]+0.049*[#  13]+
    |psi|^2 = 0.991
==== e(   4) =    -7.90410 eV ==== 
     psi = 0.200*[#   4]+0.200*[#   8]+0.200*[#  12]+0.200*[#  16]+0.048*[#   1]+
          +0.048*[#   5]+0.048*[#   9]+0.048*[#  13]+
    |psi|^2 = 0.994
==== e(   5) =    -6.73147 eV ==== 
     psi = 0.244*[#   2]+0.244*[#   6]+0.244*[#  10]+0.244*[#  14]+
    |psi|^2 = 0.979
==== e(   6) =    -5.99031 eV ==== 
     psi = 0.247*[#   2]+0.247*[#   6]+0.247*[#  10]+0.247*[#  14]+
    |psi|^2 = 0.987
==== e(   7) =    -5.56934 eV ==== 
     psi = 0.249*[#  11]+0.249*[#  15]+0.249*[#   3]+0.249*[#   7]+
    |psi|^2 = 0.997
==== e(   8) =    -5.55323 eV ==== 
     psi = 0.249*[#   3]+0.249*[#   7]+0.249*[#  11]+0.249*[#  15]+
    |psi|^2 = 0.997
==== e(   9) =     4.87602 eV ==== 
     psi = 0.008*[#   4]+0.008*[#   8]+0.008*[#  12]+0.008*[#  16]+
    |psi|^2 = 0.036
==== e(  10) =     5.29048 eV ==== 
     psi = 0.003*[#   2]+0.003*[#   4]+0.003*[#   6]+0.003*[#   8]+0.003*[#  10]+
          +0.003*[#  12]+0.003*[#  14]+0.003*[#  16]+
    |psi|^2 = 0.023
==== e(  11) =     6.04080 eV ==== 
     psi = 
    |psi|^2 = 0.008
==== e(  12) =     6.50121 eV ==== 
     psi = 0.224*[#   2]+0.224*[#   6]+0.223*[#  10]+0.223*[#  14]+
    |psi|^2 = 0.895

 k =   0.0000000000  0.3849001795  0.0000000000
==== e(   1) =   -17.43589 eV ==== 
     psi = 0.152*[#   1]+0.152*[#   5]+0.152*[#   9]+0.152*[#  13]+0.092*[#   4]+
          +0.092*[#   8]+0.092*[#  12]+0.092*[#  16]+
    |psi|^2 = 0.978
==== e(   2) =   -17.34411 eV ==== 
     psi = 0.155*[#   1]+0.155*[#   5]+0.155*[#   9]+0.155*[#  13]+0.091*[#   4]+
          +0.091*[#   8]+0.091*[#  12]+0.091*[#  16]+
    |psi|^2 = 0.984
==== e(   3) =   -10.13968 eV ==== 
     psi = 0.181*[#   4]+0.181*[#   8]+0.181*[#  12]+0.181*[#  16]+0.066*[#   1]+
          +0.066*[#   5]+0.066*[#   9]+0.066*[#  13]+
    |psi|^2 = 0.989
==== e(   4) =   -10.09134 eV ==== 
     psi = 0.182*[#   4]+0.182*[#   8]+0.182*[#  12]+0.182*[#  16]+0.066*[#   1]+
          +0.066*[#   5]+0.066*[#   9]+0.066*[#  13]+
    |psi|^2 = 0.992
==== e(   5) =    -6.29983 eV ==== 
     psi = 0.249*[#  11]+0.249*[#  15]+0.249*[#   3]+0.249*[#   7]+
    |psi|^2 = 0.996
==== e(   6) =    -6.28257 eV ==== 
     psi = 0.249*[#   3]+0.249*[#   7]+0.249*[#  11]+0.249*[#  15]+
    |psi|^2 = 0.997
==== e(   7) =    -5.44793 eV ==== 
     psi = 0.248*[#   2]+0.248*[#   6]+0.248*[#  10]+0.248*[#  14]+
    |psi|^2 = 0.991
==== e(   8) =    -4.75035 eV ==== 
     psi = 0.249*[#   2]+0.249*[#   6]+0.249*[#  10]+0.249*[#  14]+
    |psi|^2 = 0.994
==== e(   9) =     4.15360 eV ==== 
     psi = 0.233*[#   2]+0.233*[#   6]+0.233*[#  10]+0.233*[#  14]+
    |psi|^2 = 0.934
==== e(  10) =     4.65040 eV ==== 
     psi = 0.236*[#   2]+0.236*[#   6]+0.236*[#  10]+0.236*[#  14]+
    |psi|^2 = 0.943
==== e(  11) =     6.38832 eV ==== 
     psi = 0.004*[#   1]+0.004*[#   5]+0.004*[#   9]+0.004*[#  13]+0.001*[#   4]+
          +0.001*[#   8]+0.001*[#  12]+0.001*[#  16]+
    |psi|^2 = 0.023
==== e(  12) =     6.86305 eV ==== 
     psi = 0.004*[#   1]+0.004*[#   5]+0.004*[#   9]+0.004*[#  13]+0.003*[#   2]+
          +0.003*[#   6]+0.003*[#  10]+0.003*[#  14]+
    |psi|^2 = 0.028

 k =   0.0000000000  0.4811252243  0.0000000000
==== e(   1) =   -16.04032 eV ==== 
     psi = 0.139*[#   1]+0.139*[#   5]+0.139*[#   9]+0.139*[#  13]+0.106*[#   4]+
          +0.106*[#   8]+0.106*[#  12]+0.106*[#  16]+
    |psi|^2 = 0.982
==== e(   2) =   -15.95661 eV ==== 
     psi = 0.141*[#   1]+0.141*[#   5]+0.141*[#   9]+0.141*[#  13]+0.106*[#   4]+
          +0.106*[#   8]+0.106*[#  12]+0.106*[#  16]+
    |psi|^2 = 0.986
==== e(   3) =   -12.23688 eV ==== 
     psi = 0.169*[#   4]+0.169*[#   8]+0.169*[#  12]+0.169*[#  16]+0.077*[#   1]+
          +0.077*[#   5]+0.077*[#   9]+0.077*[#  13]+
    |psi|^2 = 0.985
==== e(   4) =   -12.17749 eV ==== 
     psi = 0.170*[#   4]+0.170*[#   8]+0.169*[#  12]+0.169*[#  16]+0.078*[#   1]+
          +0.078*[#   5]+0.078*[#   9]+0.078*[#  13]+
    |psi|^2 = 0.988
==== e(   5) =    -6.77092 eV ==== 
     psi = 0.249*[#  11]+0.249*[#  15]+0.249*[#   3]+0.249*[#   7]+
    |psi|^2 = 0.996
==== e(   6) =    -6.75310 eV ==== 
     psi = 0.249*[#   3]+0.249*[#   7]+0.249*[#  11]+0.249*[#  15]+
    |psi|^2 = 0.996
==== e(   7) =    -3.99863 eV ==== 
     psi = 0.249*[#   2]+0.249*[#   6]+0.249*[#  10]+0.249*[#  14]+
    |psi|^2 = 0.996
==== e(   8) =    -3.37016 eV ==== 
     psi = 0.249*[#   2]+0.249*[#   6]+0.249*[#  10]+0.249*[#  14]+
    |psi|^2 = 0.997
==== e(   9) =     1.96499 eV ==== 
     psi = 0.235*[#   2]+0.235*[#   6]+0.235*[#  10]+0.235*[#  14]+
    |psi|^2 = 0.940
==== e(  10) =     2.59090 eV ==== 
     psi = 0.238*[#   2]+0.238*[#   6]+0.238*[#  10]+0.238*[#  14]+
    |psi|^2 = 0.952
==== e(  11) =     6.88669 eV ==== 
     psi = 0.159*[#   1]+0.159*[#   5]+0.159*[#   9]+0.159*[#  13]+0.056*[#   4]+
          +0.056*[#   8]+0.056*[#  12]+0.056*[#  16]+
    |psi|^2 = 0.860
==== e(  12) =     7.03280 eV ==== 
     psi = 0.160*[#   1]+0.160*[#   5]+0.160*[#   9]+0.160*[#  13]+0.061*[#   4]+
          +0.061*[#   8]+0.061*[#  12]+0.061*[#  16]+
    |psi|^2 = 0.885

 k =   0.0000000000 -0.5773502692  0.0000000000
==== e(   1) =   -14.77939 eV ==== 
     psi = 0.160*[#   1]+0.160*[#   5]+0.160*[#   9]+0.160*[#  13]+0.088*[#   4]+
          +0.088*[#   8]+0.088*[#  12]+0.088*[#  16]+
    |psi|^2 = 0.992
==== e(   2) =   -14.70023 eV ==== 
     psi = 0.161*[#   1]+0.161*[#   5]+0.161*[#   9]+0.161*[#  13]+0.087*[#   4]+
          +0.087*[#   8]+0.087*[#  12]+0.087*[#  16]+
    |psi|^2 = 0.994
==== e(   3) =   -13.73939 eV ==== 
     psi = 0.188*[#   4]+0.188*[#   8]+0.188*[#  12]+0.188*[#  16]+0.056*[#   1]+
          +0.056*[#   5]+0.056*[#   9]+0.056*[#  13]+
    |psi|^2 = 0.976
==== e(   4) =   -13.67467 eV ==== 
     psi = 0.189*[#   4]+0.189*[#   8]+0.189*[#  12]+0.189*[#  16]+0.057*[#   1]+
          +0.057*[#   5]+0.057*[#   9]+0.057*[#  13]+
    |psi|^2 = 0.981
==== e(   5) =    -6.93271 eV ==== 
     psi = 0.249*[#  11]+0.249*[#  15]+0.249*[#   3]+0.249*[#   7]+
    |psi|^2 = 0.996
==== e(   6) =    -6.91469 eV ==== 
     psi = 0.249*[#   3]+0.249*[#   7]+0.249*[#  11]+0.249*[#  15]+
    |psi|^2 = 0.996
==== e(   7) =    -3.12578 eV ==== 
     psi = 0.249*[#   2]+0.249*[#   6]+0.249*[#  10]+0.249*[#  14]+
    |psi|^2 = 0.998
==== e(   8) =    -2.56416 eV ==== 
     psi = 0.249*[#   2]+0.249*[#   6]+0.249*[#  10]+0.249*[#  14]+
    |psi|^2 = 0.998
==== e(   9) =     0.83051 eV ==== 
     psi = 0.236*[#   2]+0.236*[#   6]+0.236*[#  10]+0.236*[#  14]+
    |psi|^2 = 0.944
==== e(  10) =     1.54279 eV ==== 
     psi = 0.238*[#   2]+0.238*[#   6]+0.238*[#  10]+0.238*[#  14]+
    |psi|^2 = 0.953
==== e(  11) =     6.80990 eV ==== 
     psi = 0.167*[#   1]+0.167*[#   5]+0.167*[#   9]+0.167*[#  13]+0.053*[#   4]+
          +0.053*[#   8]+0.053*[#  12]+0.053*[#  16]+
    |psi|^2 = 0.880
==== e(  12) =     6.95287 eV ==== 
     psi = 0.167*[#   1]+0.167*[#   5]+0.167*[#   9]+0.167*[#  13]+0.054*[#   4]+
          +0.054*[#   8]+0.054*[#  12]+0.054*[#  16]+
    |psi|^2 = 0.888

 k =   0.0833333333  0.1443375673  0.0000000000
==== e(   1) =   -19.52906 eV ==== 
     psi = 0.210*[#   1]+0.210*[#   5]+0.210*[#   9]+0.210*[#  13]+0.026*[#   4]+
          +0.026*[#   8]+0.026*[#  12]+0.026*[#  16]+0.009*[#   3]+0.009*[#   7]+
          +0.009*[#  11]+0.009*[#  15]+
    |psi|^2 = 0.978
==== e(   2) =   -19.42383 eV ==== 
     psi = 0.213*[#   1]+0.213*[#   5]+0.213*[#   9]+0.213*[#  13]+0.025*[#   4]+
          +0.025*[#   8]+0.025*[#  12]+0.025*[#  16]+0.008*[#   3]+0.008*[#   7]+
          +0.008*[#  11]+0.008*[#  15]+
    |psi|^2 = 0.985
==== e(   3) =    -7.88619 eV ==== 
     psi = 0.240*[#   2]+0.240*[#   6]+0.240*[#  10]+0.240*[#  14]+
    |psi|^2 = 0.960
==== e(   4) =    -7.11281 eV ==== 
     psi = 0.243*[#   2]+0.243*[#   6]+0.243*[#  10]+0.243*[#  14]+
    |psi|^2 = 0.974
==== e(   5) =    -5.24589 eV ==== 
     psi = 0.163*[#   8]+0.163*[#  12]+0.163*[#   4]+0.163*[#  16]+0.066*[#   3]+
          +0.066*[#  15]+0.066*[#   7]+0.066*[#  11]+0.020*[#   1]+0.021*[#   5]+
          +0.021*[#   9]+0.021*[#  13]+
    |psi|^2 = 0.998
==== e(   6) =    -5.22455 eV ==== 
     psi = 0.163*[#   4]+0.163*[#   8]+0.163*[#  16]+0.163*[#  12]+0.066*[#   3]+
          +0.066*[#   7]+0.066*[#  11]+0.066*[#  15]+0.021*[#   1]+0.020*[#   5]+
          +0.020*[#   9]+0.021*[#  13]+
    |psi|^2 = 0.998
==== e(   7) =    -4.57913 eV ==== 
     psi = 0.175*[#  11]+0.175*[#  15]+0.175*[#   3]+0.175*[#   7]+0.070*[#   4]+
          +0.070*[#   8]+0.070*[#  12]+0.070*[#  16]+0.003*[#   1]+0.003*[#   5]+
          +0.003*[#   9]+0.003*[#  13]+
    |psi|^2 = 0.994
==== e(   8) =    -4.56357 eV ==== 
     psi = 0.175*[#   3]+0.175*[#   7]+0.175*[#  11]+0.175*[#  15]+0.071*[#   4]+
          +0.071*[#   8]+0.071*[#  12]+0.071*[#  16]+0.003*[#   1]+0.003*[#   5]+
          +0.003*[#   9]+0.003*[#  13]+
    |psi|^2 = 0.996
==== e(   9) =     3.55806 eV ==== 
     psi = 0.007*[#   4]+0.007*[#   8]+0.007*[#  12]+0.007*[#  16]+0.002*[#   3]+
          +0.002*[#   7]+0.002*[#  11]+0.002*[#  15]+
    |psi|^2 = 0.040
==== e(  10) =     3.96474 eV ==== 
     psi = 0.003*[#   2]+0.003*[#   6]+0.003*[#  10]+0.003*[#  14]+0.002*[#   4]+
          +0.002*[#   8]+0.002*[#  12]+0.002*[#  16]+
    |psi|^2 = 0.025
==== e(  11) =     4.69290 eV ==== 
     psi = 0.001*[#   4]+0.001*[#   8]+0.001*[#  12]+0.001*[#  16]+
    |psi|^2 = 0.007
==== e(  12) =     5.89552 eV ==== 
     psi = 0.001*[#   2]+0.001*[#   6]+0.001*[#  10]+0.001*[#  14]+
    |psi|^2 = 0.008

 k =   0.0833333333  0.2405626122  0.0000000000
==== e(   1) =   -18.87839 eV ==== 
     psi = 0.183*[#   1]+0.183*[#   5]+0.183*[#   9]+0.183*[#  13]+0.054*[#   4]+
          +0.054*[#   8]+0.054*[#  12]+0.054*[#  16]+0.007*[#   3]+0.007*[#   7]+
          +0.007*[#  11]+0.007*[#  15]+
    |psi|^2 = 0.977
==== e(   2) =   -18.77746 eV ==== 
     psi = 0.186*[#   1]+0.186*[#   5]+0.186*[#   9]+0.186*[#  13]+0.053*[#   4]+
          +0.053*[#   8]+0.053*[#  12]+0.053*[#  16]+0.006*[#   3]+0.006*[#   7]+
          +0.006*[#  11]+0.006*[#  15]+
    |psi|^2 = 0.984
==== e(   3) =    -7.11151 eV ==== 
     psi = 0.243*[#   2]+0.243*[#   6]+0.243*[#  10]+0.243*[#  14]+
    |psi|^2 = 0.973
==== e(   4) =    -6.95048 eV ==== 
     psi = 0.195*[#   4]+0.195*[#   8]+0.196*[#  12]+0.196*[#  16]+0.039*[#   1]+
          +0.039*[#   5]+0.039*[#   9]+0.039*[#  13]+0.014*[#   3]+0.014*[#   7]+
          +0.014*[#  11]+0.014*[#  15]+
    |psi|^2 = 0.995
==== e(   5) =    -6.91993 eV ==== 
     psi = 0.196*[#   4]+0.196*[#   8]+0.196*[#  12]+0.196*[#  16]+0.039*[#   1]+
          +0.039*[#   5]+0.039*[#   9]+0.039*[#  13]+0.014*[#   3]+0.014*[#   7]+
          +0.014*[#  11]+0.014*[#  15]+
    |psi|^2 = 0.996
==== e(   6) =    -6.35885 eV ==== 
     psi = 0.246*[#   2]+0.246*[#   6]+0.246*[#  10]+0.246*[#  14]+
    |psi|^2 = 0.984
==== e(   7) =    -5.57317 eV ==== 
     psi = 0.226*[#  11]+0.226*[#   7]+0.226*[#  15]+0.226*[#   3]+0.016*[#   4]+
          +0.016*[#   8]+0.016*[#  12]+0.016*[#  16]+0.006*[#   1]+0.006*[#   5]+
          +0.006*[#   9]+0.006*[#  13]+
    |psi|^2 = 0.993
==== e(   8) =    -5.55403 eV ==== 
     psi = 0.226*[#   3]+0.226*[#   7]+0.226*[#  11]+0.226*[#  15]+0.017*[#   4]+
          +0.017*[#   8]+0.017*[#  12]+0.017*[#  16]+0.006*[#   1]+0.006*[#   5]+
          +0.006*[#   9]+0.006*[#  13]+
    |psi|^2 = 0.995
==== e(   9) =     4.43911 eV ==== 
     psi = 0.009*[#   4]+0.009*[#   8]+0.009*[#  12]+0.009*[#  16]+0.001*[#   3]+
          +0.001*[#   7]+0.001*[#  11]+0.001*[#  15]+
    |psi|^2 = 0.043
==== e(  10) =     4.85405 eV ==== 
     psi = 0.003*[#   4]+0.003*[#   8]+0.003*[#  12]+0.003*[#  16]+0.002*[#   2]+
          +0.002*[#   6]+0.002*[#  10]+0.002*[#  14]+
    |psi|^2 = 0.022
==== e(  11) =     5.59451 eV ==== 
     psi = 0.001*[#   4]+0.001*[#   8]+0.001*[#  12]+0.001*[#  16]+
    |psi|^2 = 0.007
==== e(  12) =     6.78762 eV ==== 
     psi = 0.001*[#   2]+0.001*[#   6]+0.001*[#  10]+0.001*[#  14]+
    |psi|^2 = 0.007

 k =   0.0833333333  0.3367876570  0.0000000000
==== e(   1) =   -17.91322 eV ==== 
     psi = 0.160*[#   1]+0.160*[#   5]+0.160*[#   9]+0.160*[#  13]+0.079*[#   4]+
          +0.079*[#   8]+0.079*[#  12]+0.079*[#  16]+0.005*[#   3]+0.005*[#   7]+
          +0.005*[#  11]+0.005*[#  15]+
    |psi|^2 = 0.977
==== e(   2) =   -17.81850 eV ==== 
     psi = 0.162*[#   1]+0.162*[#   5]+0.162*[#   9]+0.162*[#  13]+0.078*[#   4]+
          +0.078*[#   8]+0.078*[#  12]+0.078*[#  16]+0.005*[#   3]+0.005*[#   7]+
          +0.005*[#  11]+0.005*[#  15]+
    |psi|^2 = 0.984
==== e(   3) =    -9.01879 eV ==== 
     psi = 0.186*[#   4]+0.186*[#   8]+0.186*[#  12]+0.186*[#  16]+0.057*[#   1]+
          +0.058*[#   5]+0.058*[#   9]+0.058*[#  13]+0.004*[#   3]+0.004*[#   7]+
          +0.004*[#  11]+0.004*[#  15]+
    |psi|^2 = 0.991
==== e(   4) =    -8.97681 eV ==== 
     psi = 0.187*[#   4]+0.187*[#   8]+0.187*[#  12]+0.187*[#  16]+0.057*[#   1]+
          +0.057*[#   5]+0.057*[#   9]+0.057*[#  13]+0.004*[#   3]+0.004*[#   7]+
          +0.004*[#  11]+0.004*[#  15]+
    |psi|^2 = 0.993
==== e(   5) =    -6.45619 eV ==== 
     psi = 0.237*[#  11]+0.236*[#  15]+0.236*[#   3]+0.236*[#   7]+0.007*[#   1]+
          +0.007*[#   5]+0.007*[#   9]+0.007*[#  13]+0.005*[#   4]+0.005*[#   8]+
          +0.005*[#  12]+0.005*[#  16]+
    |psi|^2 = 0.994
==== e(   6) =    -6.43479 eV ==== 
     psi = 0.237*[#   3]+0.237*[#   7]+0.237*[#  11]+0.237*[#  15]+0.007*[#   1]+
          +0.007*[#   5]+0.007*[#   9]+0.007*[#  13]+0.005*[#   4]+0.005*[#   8]+
          +0.005*[#  12]+0.005*[#  16]+
    |psi|^2 = 0.995
==== e(   7) =    -5.98349 eV ==== 
     psi = 0.247*[#   2]+0.246*[#   6]+0.246*[#  10]+0.247*[#  14]+
    |psi|^2 = 0.987
==== e(   8) =    -5.26576 eV ==== 
     psi = 0.248*[#   2]+0.248*[#   6]+0.248*[#  10]+0.248*[#  14]+
    |psi|^2 = 0.992
==== e(   9) =     5.20534 eV ==== 
     psi = 0.236*[#   2]+0.236*[#   6]+0.236*[#  10]+0.236*[#  14]+
    |psi|^2 = 0.942
==== e(  10) =     5.60483 eV ==== 
     psi = 0.227*[#   6]+0.227*[#  10]+0.227*[#   2]+0.227*[#  14]+
    |psi|^2 = 0.909
==== e(  11) =     5.75408 eV ==== 
     psi = 0.006*[#   4]+0.006*[#   8]+0.006*[#  12]+0.006*[#  16]+
    |psi|^2 = 0.030
==== e(  12) =     6.21695 eV ==== 
     psi = 0.014*[#   6]+0.014*[#  10]+0.014*[#   2]+0.014*[#  14]+0.002*[#   4]+
          +0.002*[#   8]+0.002*[#  12]+0.002*[#  16]+
    |psi|^2 = 0.065

 k =   0.0833333333  0.4330127019  0.0000000000
==== e(   1) =   -16.65273 eV ==== 
     psi = 0.143*[#   1]+0.143*[#   5]+0.143*[#   9]+0.143*[#  13]+0.098*[#   4]+
          +0.098*[#   8]+0.098*[#  12]+0.098*[#  16]+0.004*[#   3]+0.004*[#   7]+
          +0.004*[#  11]+0.004*[#  15]+
    |psi|^2 = 0.979
==== e(   2) =   -16.56568 eV ==== 
     psi = 0.145*[#   1]+0.145*[#   5]+0.145*[#   9]+0.145*[#  13]+0.098*[#   4]+
          +0.098*[#   8]+0.098*[#  12]+0.098*[#  16]+0.004*[#   3]+0.004*[#   7]+
          +0.004*[#  11]+0.004*[#  15]+
    |psi|^2 = 0.985
==== e(   3) =   -11.13816 eV ==== 
     psi = 0.172*[#   4]+0.172*[#   8]+0.172*[#  12]+0.172*[#  16]+0.073*[#   1]+
          +0.073*[#   5]+0.073*[#   9]+0.073*[#  13]+0.002*[#   3]+0.002*[#   7]+
          +0.002*[#  11]+0.002*[#  15]+
    |psi|^2 = 0.988
==== e(   4) =   -11.08473 eV ==== 
     psi = 0.173*[#   4]+0.173*[#   8]+0.173*[#  12]+0.173*[#  16]+0.073*[#   1]+
          +0.073*[#   5]+0.073*[#   9]+0.073*[#  13]+0.002*[#   3]+0.002*[#   7]+
          +0.002*[#  11]+0.002*[#  15]+
    |psi|^2 = 0.991
==== e(   5) =    -7.08863 eV ==== 
     psi = 0.239*[#  11]+0.239*[#  15]+0.239*[#   3]+0.239*[#   7]+0.008*[#   1]+
          +0.008*[#   5]+0.008*[#   9]+0.008*[#  13]+0.002*[#   4]+0.002*[#   8]+
          +0.002*[#  12]+0.002*[#  16]+
    |psi|^2 = 0.994
==== e(   6) =    -7.06607 eV ==== 
     psi = 0.239*[#   3]+0.239*[#   7]+0.239*[#  11]+0.239*[#  15]+0.007*[#   1]+
          +0.008*[#   5]+0.007*[#   9]+0.007*[#  13]+0.002*[#   4]+0.002*[#   8]+
          +0.002*[#  12]+0.002*[#  16]+
    |psi|^2 = 0.995
==== e(   7) =    -4.58397 eV ==== 
     psi = 0.249*[#   2]+0.249*[#   6]+0.249*[#  10]+0.249*[#  14]+
    |psi|^2 = 0.995
==== e(   8) =    -3.92077 eV ==== 
     psi = 0.249*[#   2]+0.249*[#   6]+0.249*[#  10]+0.249*[#  14]+
    |psi|^2 = 0.996
==== e(   9) =     2.94906 eV ==== 
     psi = 0.236*[#   2]+0.236*[#   6]+0.236*[#  10]+0.236*[#  14]+
    |psi|^2 = 0.945
==== e(  10) =     3.48751 eV ==== 
     psi = 0.239*[#   2]+0.239*[#   6]+0.239*[#  10]+0.239*[#  14]+
    |psi|^2 = 0.957
==== e(  11) =     7.43040 eV ==== 
     psi = 0.029*[#   1]+0.029*[#   5]+0.029*[#   9]+0.029*[#  13]+0.003*[#   4]+
          +0.003*[#   8]+0.003*[#  12]+0.003*[#  16]+0.002*[#   3]+0.002*[#   7]+
          +0.002*[#  11]+0.002*[#  15]+
    |psi|^2 = 0.135
==== e(  12) =     7.77843 eV ==== 
     psi = 0.112*[#   5]+0.112*[#   9]+0.112*[#   1]+0.112*[#  13]+0.066*[#   8]+
          +0.066*[#  12]+0.066*[#   4]+0.066*[#  16]+0.006*[#   7]+0.006*[#  11]+
          +0.006*[#   3]+0.006*[#  15]+
    |psi|^2 = 0.737

 k =   0.0833333333  0.5292377468  0.0000000000
==== e(   1) =   -15.17424 eV ==== 
     psi = 0.139*[#   1]+0.139*[#   5]+0.139*[#   9]+0.139*[#  13]+0.103*[#   4]+
          +0.103*[#   8]+0.103*[#  12]+0.103*[#  16]+0.004*[#   3]+0.004*[#   7]+
          +0.004*[#  11]+0.004*[#  15]+
    |psi|^2 = 0.986
==== e(   2) =   -15.09498 eV ==== 
     psi = 0.140*[#   1]+0.140*[#   5]+0.140*[#   9]+0.140*[#  13]+0.103*[#   4]+
          +0.103*[#   8]+0.103*[#  12]+0.103*[#  16]+0.004*[#   3]+0.004*[#   7]+
          +0.004*[#  11]+0.004*[#  15]+
    |psi|^2 = 0.989
==== e(   3) =   -13.07671 eV ==== 
     psi = 0.169*[#   4]+0.169*[#   8]+0.169*[#  12]+0.169*[#  16]+0.075*[#   1]+
          +0.075*[#   5]+0.075*[#   9]+0.075*[#  13]+0.001*[#   3]+0.001*[#   7]+
          +0.001*[#  11]+0.001*[#  15]+
    |psi|^2 = 0.982
==== e(   4) =   -13.01358 eV ==== 
     psi = 0.170*[#   4]+0.170*[#   8]+0.170*[#  12]+0.170*[#  16]+0.076*[#   1]+
          +0.076*[#   5]+0.076*[#   9]+0.076*[#  13]+0.001*[#   3]+0.001*[#   7]+
          +0.001*[#  11]+0.001*[#  15]+
    |psi|^2 = 0.986
==== e(   5) =    -7.41588 eV ==== 
     psi = 0.239*[#  11]+0.239*[#  15]+0.239*[#   3]+0.239*[#   7]+0.008*[#   1]+
          +0.008*[#   5]+0.008*[#   9]+0.008*[#  13]+0.002*[#   4]+0.002*[#   8]+
          +0.002*[#  12]+0.002*[#  16]+
    |psi|^2 = 0.994
==== e(   6) =    -7.39275 eV ==== 
     psi = 0.239*[#   3]+0.239*[#   7]+0.239*[#  11]+0.239*[#  15]+0.008*[#   1]+
          +0.008*[#   5]+0.008*[#   9]+0.008*[#  13]+0.002*[#   4]+0.002*[#   8]+
          +0.002*[#  12]+0.002*[#  16]+
    |psi|^2 = 0.995
==== e(   7) =    -3.24223 eV ==== 
     psi = 0.249*[#   2]+0.249*[#   6]+0.249*[#  10]+0.249*[#  14]+
    |psi|^2 = 0.997
==== e(   8) =    -2.65928 eV ==== 
     psi = 0.249*[#   6]+0.249*[#  10]+0.249*[#   2]+0.249*[#  14]+
    |psi|^2 = 0.997
==== e(   9) =     1.13182 eV ==== 
     psi = 0.237*[#   2]+0.237*[#   6]+0.237*[#  10]+0.237*[#  14]+
    |psi|^2 = 0.949
==== e(  10) =     1.78765 eV ==== 
     psi = 0.240*[#   2]+0.240*[#   6]+0.240*[#  10]+0.240*[#  14]+
    |psi|^2 = 0.958
==== e(  11) =     7.53581 eV ==== 
     psi = 0.155*[#   1]+0.155*[#   5]+0.155*[#   9]+0.155*[#  13]+0.053*[#   4]+
          +0.053*[#   8]+0.053*[#  12]+0.053*[#  16]+0.008*[#   3]+0.008*[#   7]+
          +0.008*[#  11]+0.008*[#  15]+
    |psi|^2 = 0.862
==== e(  12) =     7.69052 eV ==== 
     psi = 0.156*[#   1]+0.156*[#   5]+0.156*[#   9]+0.156*[#  13]+0.055*[#   4]+
          +0.055*[#   8]+0.055*[#  12]+0.055*[#  16]+0.008*[#   3]+0.008*[#   7]+
          +0.008*[#  11]+0.008*[#  15]+
    |psi|^2 = 0.876

 k =   0.1666666667  0.2886751346  0.0000000000
==== e(   1) =   -18.07342 eV ==== 
     psi = 0.163*[#   1]+0.163*[#   5]+0.163*[#   9]+0.163*[#  13]+0.061*[#   4]+
          +0.061*[#   8]+0.061*[#  12]+0.061*[#  16]+0.021*[#   3]+0.021*[#   7]+
          +0.021*[#  11]+0.021*[#  15]+
    |psi|^2 = 0.977
==== e(   2) =   -17.97770 eV ==== 
     psi = 0.165*[#   1]+0.165*[#   5]+0.165*[#   9]+0.165*[#  13]+0.060*[#   4]+
          +0.060*[#   8]+0.060*[#  12]+0.060*[#  16]+0.020*[#   3]+0.020*[#   7]+
          +0.020*[#  11]+0.020*[#  15]+
    |psi|^2 = 0.983
==== e(   3) =    -8.27723 eV ==== 
     psi = 0.130*[#   8]+0.130*[#  12]+0.130*[#   4]+0.130*[#  16]+0.066*[#   3]+
          +0.066*[#  15]+0.066*[#   7]+0.066*[#  11]+0.053*[#   5]+0.053*[#   9]+
          +0.053*[#   1]+0.053*[#  13]+
    |psi|^2 = 0.996
==== e(   4) =    -8.24032 eV ==== 
     psi = 0.130*[#   4]+0.130*[#  16]+0.130*[#   8]+0.130*[#  12]+0.066*[#   7]+
          +0.066*[#  11]+0.066*[#   3]+0.066*[#  15]+0.053*[#   1]+0.053*[#   5]+
          +0.053*[#   9]+0.053*[#  13]+
    |psi|^2 = 0.997
==== e(   5) =    -6.93142 eV ==== 
     psi = 0.158*[#   3]+0.158*[#   7]+0.158*[#  11]+0.158*[#  15]+0.076*[#   4]+
          +0.076*[#  16]+0.076*[#   8]+0.076*[#  12]+0.014*[#   5]+0.014*[#   9]+
          +0.013*[#   1]+0.013*[#  13]+
    |psi|^2 = 0.988
==== e(   6) =    -6.90443 eV ==== 
     psi = 0.158*[#   3]+0.158*[#   7]+0.157*[#  11]+0.158*[#  15]+0.077*[#   4]+
          +0.077*[#   8]+0.077*[#  12]+0.077*[#  16]+0.013*[#   1]+0.013*[#   5]+
          +0.013*[#   9]+0.013*[#  13]+
    |psi|^2 = 0.992
==== e(   7) =    -6.16462 eV ==== 
     psi = 0.246*[#   2]+0.246*[#   6]+0.246*[#  10]+0.246*[#  14]+
    |psi|^2 = 0.985
==== e(   8) =    -5.44029 eV ==== 
     psi = 0.248*[#   6]+0.248*[#  10]+0.248*[#   2]+0.248*[#  14]+
    |psi|^2 = 0.991
==== e(   9) =     5.53751 eV ==== 
     psi = 0.006*[#   4]+0.006*[#   8]+0.006*[#  12]+0.006*[#  16]+0.002*[#   3]+
          +0.002*[#   7]+0.002*[#  11]+0.002*[#  15]+
    |psi|^2 = 0.034
==== e(  10) =     5.67575 eV ==== 
     psi = 0.242*[#   2]+0.242*[#  14]+0.241*[#   6]+0.241*[#  10]+
    |psi|^2 = 0.966
==== e(  11) =     5.96062 eV ==== 
     psi = 0.002*[#   4]+0.002*[#   8]+0.002*[#  12]+0.002*[#  16]+0.001*[#   6]+
          +0.001*[#  10]+
    |psi|^2 = 0.016
==== e(  12) =     6.03998 eV ==== 
     psi = 0.243*[#   2]+0.243*[#   6]+0.243*[#  10]+0.243*[#  14]+
    |psi|^2 = 0.972

 k =   0.1666666667  0.3849001795  0.0000000000
==== e(   1) =   -16.96534 eV ==== 
     psi = 0.145*[#   1]+0.145*[#   5]+0.145*[#   9]+0.145*[#  13]+0.083*[#   4]+
          +0.083*[#   8]+0.083*[#  12]+0.083*[#  16]+0.016*[#   3]+0.016*[#   7]+
          +0.016*[#  11]+0.016*[#  15]+
    |psi|^2 = 0.979
==== e(   2) =   -16.87654 eV ==== 
     psi = 0.147*[#   1]+0.147*[#   5]+0.147*[#   9]+0.147*[#  13]+0.083*[#   4]+
          +0.083*[#   8]+0.083*[#  12]+0.083*[#  16]+0.016*[#   3]+0.016*[#   7]+
          +0.016*[#  11]+0.016*[#  15]+
    |psi|^2 = 0.984
==== e(   3) =   -10.00152 eV ==== 
     psi = 0.163*[#   4]+0.163*[#   8]+0.163*[#  12]+0.163*[#  16]+0.068*[#   1]+
          +0.068*[#   5]+0.068*[#   9]+0.068*[#  13]+0.017*[#   3]+0.017*[#  15]+
          +0.017*[#   7]+0.017*[#  11]+
    |psi|^2 = 0.993
==== e(   4) =    -9.95499 eV ==== 
     psi = 0.164*[#   4]+0.164*[#   8]+0.164*[#  12]+0.164*[#  16]+0.068*[#   1]+
          +0.068*[#   5]+0.068*[#   9]+0.068*[#  13]+0.016*[#   3]+0.017*[#   7]+
          +0.017*[#  11]+0.016*[#  15]+
    |psi|^2 = 0.994
==== e(   5) =    -7.98437 eV ==== 
     psi = 0.208*[#   7]+0.208*[#  11]+0.208*[#   3]+0.208*[#  15]+0.022*[#   4]+
          +0.022*[#   8]+0.022*[#  12]+0.022*[#  16]+0.018*[#   1]+0.018*[#   5]+
          +0.018*[#   9]+0.018*[#  13]+
    |psi|^2 = 0.990
==== e(   6) =    -7.95289 eV ==== 
     psi = 0.208*[#   3]+0.208*[#   7]+0.208*[#  15]+0.208*[#  11]+0.022*[#   4]+
          +0.022*[#   8]+0.022*[#  12]+0.022*[#  16]+0.017*[#   1]+0.017*[#   5]+
          +0.017*[#   9]+0.017*[#  13]+
    |psi|^2 = 0.992
==== e(   7) =    -4.89624 eV ==== 
     psi = 0.248*[#   2]+0.248*[#  14]+0.248*[#   6]+0.248*[#  10]+
    |psi|^2 = 0.994
==== e(   8) =    -4.21551 eV ==== 
     psi = 0.249*[#   6]+0.249*[#  10]+0.249*[#   2]+0.249*[#  14]+
    |psi|^2 = 0.996
==== e(   9) =     3.70169 eV ==== 
     psi = 0.242*[#   2]+0.242*[#  14]+0.242*[#   6]+0.242*[#  10]+
    |psi|^2 = 0.967
==== e(  10) =     4.13951 eV ==== 
     psi = 0.243*[#   6]+0.243*[#  10]+0.243*[#   2]+0.243*[#  14]+
    |psi|^2 = 0.972
==== e(  11) =     7.06054 eV ==== 
     psi = 0.003*[#   4]+0.003*[#   8]+0.003*[#  12]+0.003*[#  16]+
    |psi|^2 = 0.018
==== e(  12) =     7.49377 eV ==== 
     psi = 0.001*[#   4]+0.001*[#   8]+0.001*[#  12]+0.001*[#  16]+
    |psi|^2 = 0.009

 k =   0.1666666667  0.4811252243  0.0000000000
==== e(   1) =   -15.58973 eV ==== 
     psi = 0.133*[#   1]+0.133*[#   5]+0.133*[#   9]+0.133*[#  13]+0.098*[#   4]+
          +0.098*[#   8]+0.098*[#  12]+0.098*[#  16]+0.014*[#   3]+0.015*[#   7]+
          +0.015*[#  11]+0.015*[#  15]+
    |psi|^2 = 0.983
==== e(   2) =   -15.50902 eV ==== 
     psi = 0.134*[#   1]+0.134*[#   5]+0.134*[#   9]+0.134*[#  13]+0.098*[#   4]+
          +0.098*[#   8]+0.098*[#  12]+0.098*[#  16]+0.014*[#   3]+0.014*[#   7]+
          +0.014*[#  11]+0.014*[#  15]+
    |psi|^2 = 0.987
==== e(   3) =   -11.90951 eV ==== 
     psi = 0.161*[#   4]+0.161*[#   8]+0.161*[#  12]+0.161*[#  16]+0.079*[#   1]+
          +0.079*[#   5]+0.079*[#   9]+0.079*[#  13]+0.007*[#   3]+0.007*[#   7]+
          +0.007*[#  11]+0.007*[#  15]+
    |psi|^2 = 0.988
==== e(   4) =   -11.85237 eV ==== 
     psi = 0.162*[#   4]+0.162*[#   8]+0.162*[#  12]+0.162*[#  16]+0.079*[#   1]+
          +0.079*[#   5]+0.079*[#   9]+0.079*[#  13]+0.007*[#   3]+0.007*[#   7]+
          +0.007*[#  11]+0.007*[#  15]+
    |psi|^2 = 0.990
==== e(   5) =    -8.55858 eV ==== 
     psi = 0.219*[#  11]+0.219*[#   3]+0.219*[#   7]+0.219*[#  15]+0.020*[#   1]+
          +0.020*[#   5]+0.020*[#   9]+0.020*[#  13]+0.009*[#   4]+0.009*[#   8]+
          +0.009*[#  12]+0.009*[#  16]+
    |psi|^2 = 0.991
==== e(   6) =    -8.52526 eV ==== 
     psi = 0.219*[#   3]+0.219*[#   7]+0.219*[#  11]+0.219*[#  15]+0.020*[#   1]+
          +0.020*[#   5]+0.020*[#   9]+0.020*[#  13]+0.009*[#   4]+0.009*[#   8]+
          +0.009*[#  12]+0.009*[#  16]+
    |psi|^2 = 0.993
==== e(   7) =    -3.44467 eV ==== 
     psi = 0.249*[#   2]+0.249*[#  14]+0.249*[#   6]+0.249*[#  10]+
    |psi|^2 = 0.996
==== e(   8) =    -2.82906 eV ==== 
     psi = 0.249*[#   6]+0.249*[#  10]+0.249*[#   2]+0.249*[#  14]+
    |psi|^2 = 0.997
==== e(   9) =     1.75157 eV ==== 
     psi = 0.242*[#   2]+0.242*[#  14]+0.241*[#   6]+0.241*[#  10]+
    |psi|^2 = 0.966
==== e(  10) =     2.28562 eV ==== 
     psi = 0.243*[#   6]+0.243*[#  10]+0.243*[#   2]+0.243*[#  14]+
    |psi|^2 = 0.973
==== e(  11) =     8.95329 eV ==== 
     psi = 0.012*[#   1]+0.012*[#  13]+0.012*[#   5]+0.012*[#   9]+0.003*[#   3]+
          +0.003*[#   7]+0.003*[#  11]+0.003*[#  15]+
    |psi|^2 = 0.061
==== e(  12) =     9.40510 eV ==== 
     psi = 0.017*[#   5]+0.017*[#   9]+0.012*[#   1]+0.012*[#  13]+0.005*[#   4]+
          +0.005*[#   8]+0.005*[#  12]+0.005*[#  16]+0.003*[#   7]+0.003*[#  11]+
          +0.002*[#   3]+0.002*[#  15]+
    |psi|^2 = 0.089

 k =   0.1666666667  0.5773502692  0.0000000000
==== e(   1) =   -14.35762 eV ==== 
     psi = 0.148*[#   1]+0.148*[#   5]+0.148*[#   9]+0.148*[#  13]+0.080*[#   4]+
          +0.080*[#   8]+0.080*[#  12]+0.080*[#  16]+0.020*[#   3]+0.020*[#   7]+
          +0.020*[#  11]+0.020*[#  15]+
    |psi|^2 = 0.992
==== e(   2) =   -14.28188 eV ==== 
     psi = 0.149*[#   1]+0.149*[#   5]+0.149*[#   9]+0.149*[#  13]+0.080*[#   4]+
          +0.080*[#   8]+0.080*[#  12]+0.080*[#  16]+0.019*[#   3]+0.019*[#   7]+
          +0.019*[#  11]+0.019*[#  15]+
    |psi|^2 = 0.994
==== e(   3) =   -13.34127 eV ==== 
     psi = 0.182*[#   4]+0.182*[#   8]+0.182*[#  12]+0.182*[#  16]+0.063*[#   1]+
          +0.063*[#   5]+0.063*[#   9]+0.063*[#  13]+
    |psi|^2 = 0.980
==== e(   4) =   -13.27808 eV ==== 
     psi = 0.182*[#   4]+0.182*[#   8]+0.182*[#  12]+0.182*[#  16]+0.064*[#   1]+
          +0.064*[#   5]+0.064*[#   9]+0.064*[#  13]+
    |psi|^2 = 0.984
==== e(   5) =    -8.74280 eV ==== 
     psi = 0.220*[#   3]+0.220*[#   7]+0.220*[#  11]+0.220*[#  15]+0.021*[#   1]+
          +0.021*[#   5]+0.021*[#   9]+0.021*[#  13]+0.007*[#   4]+0.007*[#   8]+
          +0.007*[#  12]+0.007*[#  16]+
    |psi|^2 = 0.991
==== e(   6) =    -8.70896 eV ==== 
     psi = 0.221*[#   3]+0.221*[#   7]+0.221*[#  11]+0.221*[#  15]+0.021*[#   1]+
          +0.021*[#   5]+0.021*[#   9]+0.021*[#  13]+0.007*[#   4]+0.007*[#   8]+
          +0.007*[#  12]+0.007*[#  16]+
    |psi|^2 = 0.993
==== e(   7) =    -2.52550 eV ==== 
     psi = 0.249*[#   2]+0.249*[#   6]+0.249*[#  10]+0.249*[#  14]+
    |psi|^2 = 0.998
==== e(   8) =    -1.97310 eV ==== 
     psi = 0.249*[#   2]+0.249*[#   6]+0.249*[#  10]+0.249*[#  14]+
    |psi|^2 = 0.997
==== e(   9) =     0.65127 eV ==== 
     psi = 0.241*[#   2]+0.241*[#   6]+0.241*[#  10]+0.241*[#  14]+
    |psi|^2 = 0.965
==== e(  10) =     1.26181 eV ==== 
     psi = 0.243*[#   2]+0.243*[#   6]+0.243*[#  10]+0.243*[#  14]+
    |psi|^2 = 0.972
==== e(  11) =     9.29236 eV ==== 
     psi = 0.133*[#   1]+0.133*[#   5]+0.133*[#   9]+0.133*[#  13]+0.050*[#   4]+
          +0.050*[#   8]+0.050*[#  12]+0.050*[#  16]+0.020*[#   3]+0.020*[#   7]+
          +0.020*[#  11]+0.020*[#  15]+
    |psi|^2 = 0.813
==== e(  12) =     9.51060 eV ==== 
     psi = 0.136*[#   1]+0.136*[#   5]+0.136*[#   9]+0.136*[#  13]+0.053*[#   4]+
          +0.053*[#   8]+0.053*[#  12]+0.053*[#  16]+0.021*[#   3]+0.021*[#   7]+
          +0.021*[#  11]+0.021*[#  15]+
    |psi|^2 = 0.840

 k =   0.2500000000  0.4330127019  0.0000000000
==== e(   1) =   -15.73720 eV ==== 
     psi = 0.132*[#   1]+0.132*[#   5]+0.132*[#   9]+0.132*[#  13]+0.083*[#   4]+
          +0.083*[#   8]+0.083*[#  12]+0.083*[#  16]+0.030*[#   3]+0.030*[#   7]+
          +0.030*[#  11]+0.030*[#  15]+
    |psi|^2 = 0.982
==== e(   2) =   -15.65590 eV ==== 
     psi = 0.134*[#   1]+0.134*[#   5]+0.134*[#   9]+0.134*[#  13]+0.083*[#   4]+
          +0.083*[#   8]+0.083*[#  12]+0.083*[#  16]+0.030*[#   3]+0.030*[#   7]+
          +0.030*[#  11]+0.030*[#  15]+
    |psi|^2 = 0.987
==== e(   3) =   -11.03566 eV ==== 
     psi = 0.097*[#   8]+0.097*[#  12]+0.097*[#   4]+0.097*[#  16]+0.087*[#   5]+
          +0.087*[#   9]+0.087*[#   1]+0.087*[#  13]+0.065*[#   3]+0.065*[#  15]+
          +0.064*[#   7]+0.064*[#  11]+
    |psi|^2 = 0.994
==== e(   4) =   -10.98333 eV ==== 
     psi = 0.098*[#   4]+0.097*[#  16]+0.097*[#   8]+0.097*[#  12]+0.087*[#   1]+
          +0.087*[#  13]+0.087*[#   5]+0.087*[#   9]+0.065*[#   7]+0.065*[#  11]+
          +0.064*[#   3]+0.064*[#  15]+
    |psi|^2 = 0.995
==== e(   5) =    -9.46401 eV ==== 
     psi = 0.149*[#   3]+0.149*[#  15]+0.149*[#   7]+0.149*[#  11]+0.080*[#   4]+
          +0.080*[#   8]+0.080*[#  12]+0.080*[#  16]+0.017*[#   5]+0.017*[#   9]+
          +0.017*[#   1]+0.017*[#  13]+
    |psi|^2 = 0.986
==== e(   6) =    -9.42432 eV ==== 
     psi = 0.149*[#   7]+0.149*[#  11]+0.149*[#   3]+0.149*[#  15]+0.081*[#   4]+
          +0.081*[#   8]+0.081*[#  12]+0.081*[#  16]+0.017*[#   1]+0.017*[#  13]+
          +0.017*[#   5]+0.017*[#   9]+
    |psi|^2 = 0.989
==== e(   7) =    -3.53444 eV ==== 
     psi = 0.249*[#   2]+0.249*[#  14]+0.249*[#   6]+0.249*[#  10]+
    |psi|^2 = 0.996
==== e(   8) =    -2.90601 eV ==== 
     psi = 0.250*[#   6]+0.250*[#  10]+0.249*[#   2]+0.249*[#  14]+
    |psi|^2 = 0.996
==== e(   9) =     2.08190 eV ==== 
     psi = 0.246*[#   2]+0.246*[#  14]+0.245*[#   6]+0.245*[#  10]+
    |psi|^2 = 0.981
==== e(  10) =     2.54450 eV ==== 
     psi = 0.246*[#   6]+0.246*[#  10]+0.245*[#   2]+0.245*[#  14]+
    |psi|^2 = 0.983
==== e(  11) =     8.76676 eV ==== 
     psi = 0.001*[#   1]+0.001*[#   5]+0.001*[#   9]+0.001*[#  13]+0.001*[#   4]+
          +0.001*[#   8]+0.001*[#  12]+0.001*[#  16]+
    |psi|^2 = 0.011
==== e(  12) =     9.16349 eV ==== 
     psi = 
    |psi|^2 = 0.004

 k =   0.2500000000  0.5292377468  0.0000000000
==== e(   1) =   -14.31583 eV ==== 
     psi = 0.126*[#   1]+0.126*[#   9]+0.126*[#  13]+0.126*[#   5]+0.090*[#   4]+
          +0.090*[#   8]+0.090*[#  12]+0.090*[#  16]+0.031*[#   3]+0.031*[#   7]+
          +0.031*[#  11]+0.031*[#  15]+
    |psi|^2 = 0.988
==== e(   2) =   -14.24242 eV ==== 
     psi = 0.127*[#   5]+0.127*[#   1]+0.127*[#   9]+0.127*[#  13]+0.090*[#   4]+
          +0.090*[#   8]+0.090*[#  12]+0.090*[#  16]+0.031*[#   3]+0.031*[#   7]+
          +0.031*[#  11]+0.031*[#  15]+
    |psi|^2 = 0.991
==== e(   3) =   -12.45534 eV ==== 
     psi = 0.140*[#   8]+0.140*[#  12]+0.139*[#   4]+0.139*[#  16]+0.092*[#   1]+
          +0.092*[#   5]+0.092*[#   9]+0.092*[#  13]+0.016*[#   3]+0.016*[#  15]+
          +0.016*[#   7]+0.016*[#  11]+
    |psi|^2 = 0.989
==== e(   4) =   -12.39485 eV ==== 
     psi = 0.140*[#   4]+0.140*[#  16]+0.140*[#   8]+0.140*[#  12]+0.092*[#   1]+
          +0.092*[#   5]+0.092*[#   9]+0.092*[#  13]+0.016*[#   7]+0.016*[#  11]+
          +0.016*[#   3]+0.016*[#  15]+
    |psi|^2 = 0.991
==== e(   5) =   -10.17000 eV ==== 
     psi = 0.195*[#   3]+0.195*[#   7]+0.195*[#  11]+0.195*[#  15]+0.031*[#   4]+
          +0.031*[#   8]+0.031*[#  12]+0.031*[#  16]+0.020*[#   1]+0.020*[#   5]+
          +0.020*[#   9]+0.020*[#  13]+
    |psi|^2 = 0.986
==== e(   6) =   -10.12677 eV ==== 
     psi = 0.196*[#   3]+0.196*[#   7]+0.196*[#  11]+0.196*[#  15]+0.031*[#   4]+
          +0.031*[#   8]+0.031*[#  12]+0.031*[#  16]+0.020*[#   1]+0.020*[#   5]+
          +0.020*[#   9]+0.020*[#  13]+
    |psi|^2 = 0.988
==== e(   7) =    -2.12274 eV ==== 
     psi = 0.250*[#   2]+0.250*[#  14]+0.248*[#   6]+0.248*[#  10]+
    |psi|^2 = 0.996
==== e(   8) =    -1.56074 eV ==== 
     psi = 0.250*[#   6]+0.250*[#  10]+0.248*[#   2]+0.248*[#  14]+
    |psi|^2 = 0.996
==== e(   9) =     0.54255 eV ==== 
     psi = 0.247*[#   2]+0.247*[#  14]+0.245*[#   6]+0.245*[#  10]+
    |psi|^2 = 0.984
==== e(  10) =     1.05773 eV ==== 
     psi = 0.247*[#   6]+0.247*[#  10]+0.246*[#   2]+0.246*[#  14]+
    |psi|^2 = 0.986
==== e(  11) =     9.74330 eV ==== 
     psi = 0.001*[#   2]+0.001*[#   6]+0.001*[#  10]+0.001*[#  14]+
    |psi|^2 = 0.009
==== e(  12) =    10.74833 eV ==== 
     psi = 0.012*[#   1]+0.012*[#   5]+0.012*[#   9]+0.012*[#  13]+0.004*[#   7]+
          +0.004*[#  11]+0.004*[#   3]+0.004*[#  15]+0.001*[#   4]+0.001*[#  16]+
          +0.001*[#   8]+0.001*[#  12]+
    |psi|^2 = 0.070

 k =   0.3333333333  0.5773502692  0.0000000000
==== e(   1) =   -13.09958 eV ==== 
     psi = 0.120*[#   1]+0.120*[#   5]+0.120*[#   9]+0.120*[#  13]+0.064*[#   3]+
          +0.064*[#   4]+0.064*[#   7]+0.064*[#   8]+0.064*[#  11]+0.064*[#  12]+
          +0.064*[#  15]+0.064*[#  16]+
    |psi|^2 = 0.992
==== e(   2) =   -13.09912 eV ==== 
     psi = 0.120*[#   1]+0.120*[#   5]+0.120*[#   9]+0.120*[#  13]+0.064*[#   3]+
          +0.064*[#   4]+0.064*[#   7]+0.064*[#   8]+0.064*[#  11]+0.064*[#  12]+
          +0.064*[#  15]+0.064*[#  16]+
    |psi|^2 = 0.992
==== e(   3) =   -13.03363 eV ==== 
     psi = 0.121*[#   1]+0.120*[#   5]+0.120*[#   9]+0.120*[#  13]+0.064*[#   3]+
          +0.064*[#   4]+0.064*[#   8]+0.064*[#   7]+0.064*[#  16]+0.064*[#  11]+
          +0.064*[#  12]+0.064*[#  15]+
    |psi|^2 = 0.994
==== e(   4) =   -13.03295 eV ==== 
     psi = 0.120*[#   1]+0.121*[#   5]+0.120*[#   9]+0.120*[#  13]+0.064*[#   3]+
          +0.064*[#   4]+0.064*[#   7]+0.064*[#   8]+0.064*[#  11]+0.064*[#  12]+
          +0.064*[#  15]+0.064*[#  16]+
    |psi|^2 = 0.994
==== e(   5) =   -11.06299 eV ==== 
     psi = 0.122*[#   3]+0.122*[#  11]+0.122*[#  15]+0.122*[#   4]+0.122*[#  12]+
          +0.122*[#   7]+0.122*[#   8]+0.122*[#  16]+
    |psi|^2 = 0.979
==== e(   6) =   -11.01626 eV ==== 
     psi = 0.123*[#   3]+0.123*[#   4]+0.123*[#   7]+0.123*[#   8]+0.123*[#  11]+
          +0.123*[#  12]+0.123*[#  15]+0.123*[#  16]+
    |psi|^2 = 0.983
==== e(   7) =    -0.75310 eV ==== 
     psi = 0.249*[#   6]+0.249*[#  14]+0.248*[#   2]+0.248*[#  10]+
    |psi|^2 = 0.994
==== e(   8) =    -0.75300 eV ==== 
     psi = 0.249*[#   2]+0.249*[#  10]+0.248*[#   6]+0.248*[#  14]+
    |psi|^2 = 0.994
==== e(   9) =    -0.23241 eV ==== 
     psi = 0.248*[#   2]+0.248*[#   6]+0.248*[#  10]+0.248*[#  14]+
    |psi|^2 = 0.994
==== e(  10) =    -0.23073 eV ==== 
     psi = 0.248*[#   2]+0.248*[#   6]+0.248*[#  10]+0.248*[#  14]+
    |psi|^2 = 0.994
==== e(  11) =     9.29909 eV ==== 
     psi = 
    |psi|^2 = 0.001
==== e(  12) =    10.99653 eV ==== 
     psi = 
    |psi|^2 = 0.003

 k =  -0.0833333333  0.0481125224  0.0000000000
==== e(   1) =   -19.85632 eV ==== 
     psi = 0.231*[#   1]+0.231*[#   5]+0.231*[#   9]+0.231*[#  13]+0.010*[#   3]+
          +0.010*[#   7]+0.010*[#  11]+0.010*[#  15]+0.003*[#   4]+0.003*[#   8]+
          +0.003*[#  12]+0.003*[#  16]+
    |psi|^2 = 0.979
==== e(   2) =   -19.74889 eV ==== 
     psi = 0.233*[#   1]+0.233*[#   5]+0.233*[#   9]+0.233*[#  13]+0.010*[#   3]+
          +0.010*[#   7]+0.010*[#  11]+0.010*[#  15]+0.003*[#   4]+0.003*[#   8]+
          +0.003*[#  12]+0.003*[#  16]+
    |psi|^2 = 0.985
==== e(   3) =    -8.27896 eV ==== 
     psi = 0.238*[#   2]+0.238*[#   6]+0.238*[#  10]+0.238*[#  14]+
    |psi|^2 = 0.952
==== e(   4) =    -7.49569 eV ==== 
     psi = 0.242*[#   2]+0.242*[#   6]+0.242*[#  10]+0.242*[#  14]+
    |psi|^2 = 0.968
==== e(   5) =    -4.21528 eV ==== 
     psi = 0.180*[#  15]+0.180*[#   3]+0.180*[#  11]+0.180*[#   7]+0.061*[#   4]+
          +0.061*[#  16]+0.060*[#   8]+0.061*[#  12]+0.009*[#   1]+0.009*[#   5]+
          +0.009*[#   9]+0.009*[#  13]+
    |psi|^2 = 0.997
==== e(   6) =    -4.19958 eV ==== 
     psi = 0.180*[#   3]+0.180*[#   7]+0.180*[#  11]+0.180*[#  15]+0.061*[#   8]+
          +0.061*[#   4]+0.061*[#  12]+0.061*[#  16]+0.009*[#   1]+0.009*[#   5]+
          +0.009*[#   9]+0.009*[#  13]+
    |psi|^2 = 0.997
==== e(   7) =    -3.90502 eV ==== 
     psi = 0.187*[#  12]+0.187*[#  16]+0.187*[#   4]+0.186*[#   8]+0.063*[#   7]+
          +0.063*[#  11]+0.063*[#   3]+0.063*[#  15]+
    |psi|^2 = 0.997
==== e(   8) =    -3.89237 eV ==== 
     psi = 0.187*[#   4]+0.187*[#   8]+0.187*[#  12]+0.186*[#  16]+0.063*[#   3]+
          +0.063*[#   7]+0.063*[#  15]+0.063*[#  11]+
    |psi|^2 = 0.997
==== e(   9) =     3.11684 eV ==== 
     psi = 0.003*[#   3]+0.003*[#   7]+0.003*[#  11]+0.003*[#  15]+0.001*[#   4]+
          +0.001*[#   8]+0.001*[#  12]+0.001*[#  16]+0.001*[#   1]+
    |psi|^2 = 0.026
==== e(  10) =     3.51862 eV ==== 
     psi = 0.004*[#   2]+0.004*[#   6]+0.004*[#  10]+0.004*[#  14]+0.001*[#   3]+
          +0.001*[#   7]+0.001*[#  11]+0.001*[#  15]+
    |psi|^2 = 0.024
==== e(  11) =     4.24186 eV ==== 
     psi = 
    |psi|^2 = 0.005
==== e(  12) =     5.44778 eV ==== 
     psi = 0.001*[#   2]+0.001*[#   6]+0.001*[#  10]+0.001*[#  14]+
    |psi|^2 = 0.008

 k =   0.0833333333  0.0481125224  0.0000000000
==== e(   1) =   -19.85632 eV ==== 
     psi = 0.231*[#   1]+0.231*[#   5]+0.231*[#   9]+0.231*[#  13]+0.010*[#   3]+
          +0.010*[#   7]+0.010*[#  11]+0.010*[#  15]+0.003*[#   4]+0.003*[#   8]+
          +0.003*[#  12]+0.003*[#  16]+
    |psi|^2 = 0.979
==== e(   2) =   -19.74889 eV ==== 
     psi = 0.233*[#   1]+0.233*[#   5]+0.233*[#   9]+0.233*[#  13]+0.010*[#   3]+
          +0.010*[#   7]+0.010*[#  11]+0.010*[#  15]+0.003*[#   4]+0.003*[#   8]+
          +0.003*[#  12]+0.003*[#  16]+
    |psi|^2 = 0.985
==== e(   3) =    -8.27896 eV ==== 
     psi = 0.238*[#   2]+0.238*[#   6]+0.238*[#  10]+0.238*[#  14]+
    |psi|^2 = 0.952
==== e(   4) =    -7.49569 eV ==== 
     psi = 0.242*[#   2]+0.242*[#   6]+0.242*[#  10]+0.242*[#  14]+
    |psi|^2 = 0.968
==== e(   5) =    -4.21528 eV ==== 
     psi = 0.180*[#  11]+0.180*[#   7]+0.180*[#  15]+0.180*[#   3]+0.061*[#   8]+
          +0.061*[#  12]+0.060*[#   4]+0.061*[#  16]+0.009*[#   1]+0.009*[#   5]+
          +0.009*[#   9]+0.009*[#  13]+
    |psi|^2 = 0.997
==== e(   6) =    -4.19958 eV ==== 
     psi = 0.180*[#   3]+0.180*[#   7]+0.180*[#  11]+0.180*[#  15]+0.061*[#   4]+
          +0.061*[#   8]+0.061*[#  16]+0.061*[#  12]+0.009*[#   1]+0.009*[#   5]+
          +0.009*[#   9]+0.009*[#  13]+
    |psi|^2 = 0.997
==== e(   7) =    -3.90502 eV ==== 
     psi = 0.187*[#  12]+0.186*[#   4]+0.187*[#   8]+0.187*[#  16]+0.063*[#   3]+
          +0.063*[#  15]+0.063*[#   7]+0.063*[#  11]+
    |psi|^2 = 0.997
==== e(   8) =    -3.89237 eV ==== 
     psi = 0.187*[#   4]+0.187*[#   8]+0.186*[#  12]+0.187*[#  16]+0.063*[#   7]+
          +0.063*[#   3]+0.063*[#  11]+0.063*[#  15]+
    |psi|^2 = 0.997
==== e(   9) =     3.11684 eV ==== 
     psi = 0.003*[#   3]+0.003*[#   7]+0.003*[#  11]+0.003*[#  15]+0.001*[#   4]+
          +0.001*[#   8]+0.001*[#  12]+0.001*[#  16]+0.001*[#   1]+
    |psi|^2 = 0.026
==== e(  10) =     3.51862 eV ==== 
     psi = 0.004*[#   2]+0.004*[#   6]+0.004*[#  10]+0.004*[#  14]+0.001*[#   3]+
          +0.001*[#   7]+0.001*[#  11]+0.001*[#  15]+
    |psi|^2 = 0.024
==== e(  11) =     4.24186 eV ==== 
     psi = 
    |psi|^2 = 0.005
==== e(  12) =     5.44778 eV ==== 
     psi = 0.001*[#   2]+0.001*[#   6]+0.001*[#  10]+0.001*[#  14]+
    |psi|^2 = 0.008

 k =  -0.1666666667  0.0962250449  0.0000000000
==== e(   1) =   -19.36586 eV ==== 
     psi = 0.202*[#   1]+0.202*[#   5]+0.202*[#   9]+0.202*[#  13]+0.032*[#   3]+
          +0.032*[#   7]+0.032*[#  11]+0.032*[#  15]+0.011*[#   4]+0.011*[#   8]+
          +0.011*[#  12]+0.011*[#  16]+
    |psi|^2 = 0.978
==== e(   2) =   -19.26173 eV ==== 
     psi = 0.205*[#   1]+0.205*[#   5]+0.205*[#   9]+0.205*[#  13]+0.031*[#   3]+
          +0.031*[#   7]+0.031*[#  11]+0.031*[#  15]+0.010*[#   4]+0.010*[#   8]+
          +0.010*[#  12]+0.010*[#  16]+
    |psi|^2 = 0.984
==== e(   3) =    -7.69124 eV ==== 
     psi = 0.241*[#   2]+0.241*[#   6]+0.241*[#  10]+0.241*[#  14]+
    |psi|^2 = 0.964
==== e(   4) =    -6.92295 eV ==== 
     psi = 0.244*[#   2]+0.244*[#   6]+0.244*[#  10]+0.244*[#  14]+
    |psi|^2 = 0.977
==== e(   5) =    -5.84739 eV ==== 
     psi = 0.165*[#   3]+0.165*[#  15]+0.165*[#   7]+0.165*[#  11]+0.055*[#   4]+
          +0.055*[#  16]+0.055*[#   8]+0.055*[#  12]+0.028*[#   5]+0.028*[#   9]+
          +0.028*[#   1]+0.028*[#  13]+
    |psi|^2 = 0.994
==== e(   6) =    -5.82208 eV ==== 
     psi = 0.166*[#   7]+0.166*[#  11]+0.166*[#   3]+0.165*[#  15]+0.055*[#   8]+
          +0.055*[#  12]+0.055*[#   4]+0.055*[#  16]+0.028*[#   1]+0.028*[#   5]+
          +0.028*[#  13]+0.028*[#   9]+
    |psi|^2 = 0.996
==== e(   7) =    -4.69402 eV ==== 
     psi = 0.187*[#   4]+0.187*[#  12]+0.187*[#  16]+0.187*[#   8]+0.062*[#  11]+
          +0.062*[#   3]+0.062*[#   7]+0.062*[#  15]+
    |psi|^2 = 0.997
==== e(   8) =    -4.67949 eV ==== 
     psi = 0.187*[#   4]+0.187*[#   8]+0.187*[#  12]+0.187*[#  16]+0.062*[#   3]+
          +0.062*[#   7]+0.062*[#  11]+0.062*[#  15]+
    |psi|^2 = 0.997
==== e(   9) =     3.77811 eV ==== 
     psi = 0.007*[#   3]+0.007*[#   7]+0.007*[#  11]+0.007*[#  15]+0.002*[#   4]+
          +0.002*[#   8]+0.002*[#  12]+0.002*[#  16]+
    |psi|^2 = 0.042
==== e(  10) =     4.18722 eV ==== 
     psi = 0.003*[#   2]+0.003*[#   6]+0.003*[#  10]+0.003*[#  14]+0.002*[#   3]+
          +0.002*[#   7]+0.002*[#  11]+0.002*[#  15]+
    |psi|^2 = 0.025
==== e(  11) =     4.91809 eV ==== 
     psi = 0.001*[#   3]+0.001*[#   7]+0.001*[#  11]+0.001*[#  15]+
    |psi|^2 = 0.007
==== e(  12) =     6.11838 eV ==== 
     psi = 
    |psi|^2 = 0.007

 k =   0.1666666667  0.0962250449  0.0000000000
==== e(   1) =   -19.36586 eV ==== 
     psi = 0.202*[#   1]+0.202*[#   5]+0.202*[#   9]+0.202*[#  13]+0.032*[#   3]+
          +0.032*[#   7]+0.032*[#  11]+0.032*[#  15]+0.011*[#   4]+0.011*[#   8]+
          +0.011*[#  12]+0.011*[#  16]+
    |psi|^2 = 0.978
==== e(   2) =   -19.26173 eV ==== 
     psi = 0.205*[#   1]+0.205*[#   5]+0.205*[#   9]+0.205*[#  13]+0.031*[#   3]+
          +0.031*[#   7]+0.031*[#  11]+0.031*[#  15]+0.010*[#   4]+0.010*[#   8]+
          +0.010*[#  12]+0.010*[#  16]+
    |psi|^2 = 0.984
==== e(   3) =    -7.69124 eV ==== 
     psi = 0.241*[#   2]+0.241*[#   6]+0.241*[#  10]+0.241*[#  14]+
    |psi|^2 = 0.964
==== e(   4) =    -6.92295 eV ==== 
     psi = 0.244*[#   2]+0.244*[#   6]+0.244*[#  10]+0.244*[#  14]+
    |psi|^2 = 0.977
==== e(   5) =    -5.84739 eV ==== 
     psi = 0.165*[#   7]+0.165*[#  11]+0.165*[#   3]+0.165*[#  15]+0.055*[#   8]+
          +0.055*[#  12]+0.055*[#   4]+0.055*[#  16]+0.028*[#   1]+0.028*[#  13]+
          +0.028*[#   5]+0.028*[#   9]+
    |psi|^2 = 0.994
==== e(   6) =    -5.82208 eV ==== 
     psi = 0.166*[#   3]+0.166*[#  15]+0.166*[#   7]+0.165*[#  11]+0.055*[#   4]+
          +0.055*[#  16]+0.055*[#   8]+0.055*[#  12]+0.028*[#   5]+0.028*[#   1]+
          +0.028*[#   9]+0.028*[#  13]+
    |psi|^2 = 0.996
==== e(   7) =    -4.69402 eV ==== 
     psi = 0.187*[#  12]+0.187*[#   4]+0.187*[#   8]+0.187*[#  16]+0.062*[#   3]+
          +0.062*[#  11]+0.062*[#  15]+0.062*[#   7]+
    |psi|^2 = 0.997
==== e(   8) =    -4.67949 eV ==== 
     psi = 0.187*[#   4]+0.187*[#   8]+0.187*[#  12]+0.187*[#  16]+0.062*[#   3]+
          +0.062*[#   7]+0.062*[#  11]+0.062*[#  15]+
    |psi|^2 = 0.997
==== e(   9) =     3.77811 eV ==== 
     psi = 0.007*[#   3]+0.007*[#   7]+0.007*[#  11]+0.007*[#  15]+0.002*[#   4]+
          +0.002*[#   8]+0.002*[#  12]+0.002*[#  16]+
    |psi|^2 = 0.042
==== e(  10) =     4.18722 eV ==== 
     psi = 0.003*[#   2]+0.003*[#   6]+0.003*[#  10]+0.003*[#  14]+0.002*[#   3]+
          +0.002*[#   7]+0.002*[#  11]+0.002*[#  15]+
    |psi|^2 = 0.025
==== e(  11) =     4.91809 eV ==== 
     psi = 0.001*[#   3]+0.001*[#   7]+0.001*[#  11]+0.001*[#  15]+
    |psi|^2 = 0.007
==== e(  12) =     6.11838 eV ==== 
     psi = 0.001*[#   2]+
    |psi|^2 = 0.007

 k =  -0.2500000000  0.1443375673  0.0000000000
==== e(   1) =   -18.55494 eV ==== 
     psi = 0.174*[#   1]+0.174*[#   5]+0.174*[#   9]+0.174*[#  13]+0.053*[#   3]+
          +0.053*[#   7]+0.053*[#  11]+0.053*[#  15]+0.018*[#   4]+0.018*[#   8]+
          +0.018*[#  12]+0.018*[#  16]+
    |psi|^2 = 0.977
==== e(   2) =   -18.45611 eV ==== 
     psi = 0.177*[#   1]+0.177*[#   5]+0.177*[#   9]+0.177*[#  13]+0.052*[#   3]+
          +0.052*[#   7]+0.052*[#  11]+0.052*[#  15]+0.017*[#   4]+0.017*[#   8]+
          +0.017*[#  12]+0.017*[#  16]+
    |psi|^2 = 0.984
==== e(   3) =    -7.94024 eV ==== 
     psi = 0.150*[#   3]+0.150*[#  15]+0.149*[#   7]+0.149*[#  11]+0.050*[#   4]+
          +0.050*[#  16]+0.050*[#   8]+0.050*[#  12]+0.049*[#   5]+0.049*[#   9]+
          +0.048*[#   1]+0.049*[#  13]+
    |psi|^2 = 0.991
==== e(   4) =    -7.90350 eV ==== 
     psi = 0.150*[#   7]+0.150*[#  11]+0.150*[#   3]+0.150*[#  15]+0.050*[#   8]+
          +0.050*[#  12]+0.050*[#   4]+0.050*[#  16]+0.048*[#   1]+0.048*[#  13]+
          +0.048*[#   5]+0.048*[#   9]+
    |psi|^2 = 0.994
==== e(   5) =    -6.73150 eV ==== 
     psi = 0.244*[#   2]+0.245*[#   6]+0.245*[#  10]+0.244*[#  14]+
    |psi|^2 = 0.979
==== e(   6) =    -5.99041 eV ==== 
     psi = 0.247*[#   2]+0.247*[#   6]+0.247*[#  10]+0.247*[#  14]+
    |psi|^2 = 0.987
==== e(   7) =    -5.57017 eV ==== 
     psi = 0.187*[#   4]+0.187*[#  12]+0.187*[#  16]+0.187*[#   8]+0.062*[#   3]+
          +0.062*[#   7]+0.062*[#  11]+0.062*[#  15]+
    |psi|^2 = 0.997
==== e(   8) =    -5.55388 eV ==== 
     psi = 0.187*[#   4]+0.187*[#   8]+0.187*[#  12]+0.187*[#  16]+0.062*[#   3]+
          +0.062*[#   7]+0.062*[#  11]+0.062*[#  15]+
    |psi|^2 = 0.997
==== e(   9) =     4.87601 eV ==== 
     psi = 0.006*[#   3]+0.006*[#   7]+0.006*[#  11]+0.006*[#  15]+0.002*[#   4]+
          +0.002*[#   8]+0.002*[#  12]+0.002*[#  16]+
    |psi|^2 = 0.036
==== e(  10) =     5.29042 eV ==== 
     psi = 0.003*[#   6]+0.003*[#  10]+0.003*[#   2]+0.003*[#  14]+0.002*[#   3]+
          +0.002*[#   7]+0.002*[#  11]+0.002*[#  15]+
    |psi|^2 = 0.023
==== e(  11) =     6.04079 eV ==== 
     psi = 
    |psi|^2 = 0.008
==== e(  12) =     6.50150 eV ==== 
     psi = 0.224*[#   2]+0.224*[#  14]+0.223*[#   6]+0.223*[#  10]+
    |psi|^2 = 0.895

 k =   0.2500000000  0.1443375673  0.0000000000
==== e(   1) =   -18.55494 eV ==== 
     psi = 0.174*[#   1]+0.174*[#   5]+0.174*[#   9]+0.174*[#  13]+0.053*[#   3]+
          +0.053*[#   7]+0.053*[#  11]+0.053*[#  15]+0.018*[#   4]+0.018*[#   8]+
          +0.018*[#  12]+0.018*[#  16]+
    |psi|^2 = 0.977
==== e(   2) =   -18.45611 eV ==== 
     psi = 0.177*[#   1]+0.177*[#   5]+0.177*[#   9]+0.177*[#  13]+0.052*[#   3]+
          +0.052*[#   7]+0.052*[#  11]+0.052*[#  15]+0.017*[#   4]+0.017*[#   8]+
          +0.017*[#  12]+0.017*[#  16]+
    |psi|^2 = 0.984
==== e(   3) =    -7.94024 eV ==== 
     psi = 0.150*[#   7]+0.150*[#  11]+0.149*[#   3]+0.149*[#  15]+0.050*[#   8]+
          +0.050*[#  12]+0.050*[#   4]+0.050*[#  16]+0.049*[#   1]+0.049*[#  13]+
          +0.048*[#   5]+0.049*[#   9]+
    |psi|^2 = 0.991
==== e(   4) =    -7.90350 eV ==== 
     psi = 0.150*[#   3]+0.150*[#  15]+0.150*[#   7]+0.150*[#  11]+0.050*[#   4]+
          +0.050*[#  16]+0.050*[#   8]+0.050*[#  12]+0.048*[#   5]+0.048*[#   9]+
          +0.048*[#   1]+0.048*[#  13]+
    |psi|^2 = 0.994
==== e(   5) =    -6.73150 eV ==== 
     psi = 0.245*[#   2]+0.244*[#   6]+0.244*[#  10]+0.245*[#  14]+
    |psi|^2 = 0.979
==== e(   6) =    -5.99041 eV ==== 
     psi = 0.247*[#   2]+0.247*[#   6]+0.247*[#  10]+0.247*[#  14]+
    |psi|^2 = 0.987
==== e(   7) =    -5.57017 eV ==== 
     psi = 0.187*[#  12]+0.187*[#   4]+0.187*[#   8]+0.187*[#  16]+0.062*[#   3]+
          +0.062*[#   7]+0.062*[#  11]+0.062*[#  15]+
    |psi|^2 = 0.997
==== e(   8) =    -5.55388 eV ==== 
     psi = 0.187*[#   4]+0.187*[#   8]+0.187*[#  12]+0.187*[#  16]+0.062*[#   3]+
          +0.062*[#   7]+0.062*[#  11]+0.062*[#  15]+
    |psi|^2 = 0.997
==== e(   9) =     4.87601 eV ==== 
     psi = 0.006*[#   3]+0.006*[#   7]+0.006*[#  11]+0.006*[#  15]+0.002*[#   4]+
          +0.002*[#   8]+0.002*[#  12]+0.002*[#  16]+
    |psi|^2 = 0.036
==== e(  10) =     5.29042 eV ==== 
     psi = 0.003*[#   2]+0.003*[#  14]+0.003*[#   6]+0.003*[#  10]+0.002*[#   3]+
          +0.002*[#   7]+0.002*[#  11]+0.002*[#  15]+
    |psi|^2 = 0.023
==== e(  11) =     6.04079 eV ==== 
     psi = 
    |psi|^2 = 0.008
==== e(  12) =     6.50150 eV ==== 
     psi = 0.224*[#   6]+0.224*[#  10]+0.223*[#   2]+0.223*[#  14]+
    |psi|^2 = 0.895

 k =  -0.3333333333  0.1924500897  0.0000000000
==== e(   1) =   -17.43587 eV ==== 
     psi = 0.152*[#   1]+0.152*[#   5]+0.152*[#   9]+0.152*[#  13]+0.069*[#   3]+
          +0.069*[#   7]+0.069*[#  11]+0.069*[#  15]+0.023*[#   4]+0.023*[#   8]+
          +0.023*[#  12]+0.023*[#  16]+
    |psi|^2 = 0.978
==== e(   2) =   -17.34409 eV ==== 
     psi = 0.155*[#   1]+0.155*[#   5]+0.155*[#   9]+0.155*[#  13]+0.068*[#   3]+
          +0.068*[#   7]+0.068*[#  11]+0.068*[#  15]+0.023*[#   4]+0.023*[#   8]+
          +0.023*[#  12]+0.023*[#  16]+
    |psi|^2 = 0.984
==== e(   3) =   -10.13924 eV ==== 
     psi = 0.136*[#   3]+0.136*[#  15]+0.136*[#   7]+0.136*[#  11]+0.066*[#   5]+
          +0.066*[#   9]+0.066*[#   1]+0.066*[#  13]+0.045*[#   4]+0.045*[#  16]+
          +0.045*[#   8]+0.045*[#  12]+
    |psi|^2 = 0.989
==== e(   4) =   -10.09088 eV ==== 
     psi = 0.137*[#   7]+0.137*[#  11]+0.136*[#   3]+0.136*[#  15]+0.066*[#   1]+
          +0.066*[#  13]+0.066*[#   5]+0.066*[#   9]+0.046*[#   8]+0.046*[#  12]+
          +0.045*[#   4]+0.045*[#  16]+
    |psi|^2 = 0.991
==== e(   5) =    -6.30056 eV ==== 
     psi = 0.187*[#   4]+0.187*[#  12]+0.187*[#  16]+0.187*[#   8]+0.062*[#   3]+
          +0.062*[#   7]+0.062*[#  11]+0.062*[#  15]+
    |psi|^2 = 0.996
==== e(   6) =    -6.28311 eV ==== 
     psi = 0.187*[#   4]+0.187*[#   8]+0.187*[#  12]+0.187*[#  16]+0.062*[#   3]+
          +0.062*[#   7]+0.062*[#  11]+0.062*[#  15]+
    |psi|^2 = 0.997
==== e(   7) =    -5.44798 eV ==== 
     psi = 0.248*[#   6]+0.248*[#  10]+0.247*[#   2]+0.247*[#  14]+
    |psi|^2 = 0.991
==== e(   8) =    -4.75060 eV ==== 
     psi = 0.249*[#   2]+0.249*[#  14]+0.248*[#   6]+0.248*[#  10]+
    |psi|^2 = 0.994
==== e(   9) =     4.15411 eV ==== 
     psi = 0.234*[#   6]+0.234*[#  10]+0.233*[#   2]+0.233*[#  14]+
    |psi|^2 = 0.934
==== e(  10) =     4.65082 eV ==== 
     psi = 0.236*[#   2]+0.236*[#  14]+0.236*[#   6]+0.236*[#  10]+
    |psi|^2 = 0.943
==== e(  11) =     6.38827 eV ==== 
     psi = 0.004*[#   1]+0.004*[#   5]+0.004*[#   9]+0.004*[#  13]+
    |psi|^2 = 0.023
==== e(  12) =     6.86311 eV ==== 
     psi = 0.004*[#   1]+0.004*[#   5]+0.004*[#   9]+0.004*[#  13]+0.003*[#   2]+
          +0.003*[#   6]+0.003*[#  10]+0.003*[#  14]+
    |psi|^2 = 0.028

 k =   0.3333333333  0.1924500897  0.0000000000
==== e(   1) =   -17.43587 eV ==== 
     psi = 0.152*[#   1]+0.152*[#   5]+0.152*[#   9]+0.152*[#  13]+0.069*[#   3]+
          +0.069*[#   7]+0.069*[#  11]+0.069*[#  15]+0.023*[#   4]+0.023*[#   8]+
          +0.023*[#  12]+0.023*[#  16]+
    |psi|^2 = 0.978
==== e(   2) =   -17.34409 eV ==== 
     psi = 0.155*[#   1]+0.155*[#   5]+0.155*[#   9]+0.155*[#  13]+0.068*[#   3]+
          +0.068*[#   7]+0.068*[#  11]+0.068*[#  15]+0.023*[#   4]+0.023*[#   8]+
          +0.023*[#  12]+0.023*[#  16]+
    |psi|^2 = 0.984
==== e(   3) =   -10.13924 eV ==== 
     psi = 0.136*[#   7]+0.136*[#  11]+0.136*[#   3]+0.136*[#  15]+0.066*[#   1]+
          +0.066*[#  13]+0.066*[#   5]+0.066*[#   9]+0.045*[#   8]+0.045*[#  12]+
          +0.045*[#   4]+0.045*[#  16]+
    |psi|^2 = 0.989
==== e(   4) =   -10.09088 eV ==== 
     psi = 0.137*[#   3]+0.137*[#  15]+0.136*[#   7]+0.136*[#  11]+0.066*[#   5]+
          +0.066*[#   9]+0.066*[#   1]+0.066*[#  13]+0.046*[#   4]+0.046*[#  16]+
          +0.045*[#   8]+0.045*[#  12]+
    |psi|^2 = 0.991
==== e(   5) =    -6.30056 eV ==== 
     psi = 0.187*[#  12]+0.187*[#   4]+0.187*[#   8]+0.187*[#  16]+0.062*[#   3]+
          +0.062*[#   7]+0.062*[#  11]+0.062*[#  15]+
    |psi|^2 = 0.996
==== e(   6) =    -6.28311 eV ==== 
     psi = 0.187*[#   4]+0.187*[#   8]+0.187*[#  12]+0.187*[#  16]+0.062*[#   3]+
          +0.062*[#   7]+0.062*[#  11]+0.062*[#  15]+
    |psi|^2 = 0.997
==== e(   7) =    -5.44798 eV ==== 
     psi = 0.248*[#   2]+0.248*[#  14]+0.247*[#   6]+0.247*[#  10]+
    |psi|^2 = 0.991
==== e(   8) =    -4.75060 eV ==== 
     psi = 0.249*[#   6]+0.249*[#  10]+0.248*[#   2]+0.248*[#  14]+
    |psi|^2 = 0.994
==== e(   9) =     4.15411 eV ==== 
     psi = 0.234*[#   2]+0.234*[#  14]+0.233*[#   6]+0.233*[#  10]+
    |psi|^2 = 0.934
==== e(  10) =     4.65082 eV ==== 
     psi = 0.236*[#   6]+0.236*[#  10]+0.236*[#   2]+0.236*[#  14]+
    |psi|^2 = 0.943
==== e(  11) =     6.38827 eV ==== 
     psi = 0.004*[#   1]+0.004*[#   5]+0.004*[#   9]+0.004*[#  13]+
    |psi|^2 = 0.023
==== e(  12) =     6.86311 eV ==== 
     psi = 0.004*[#   1]+0.004*[#   5]+0.004*[#   9]+0.004*[#  13]+0.003*[#   2]+
          +0.003*[#   6]+0.003*[#  10]+0.003*[#  14]+
    |psi|^2 = 0.028

 k =  -0.4166666667  0.2405626122  0.0000000000
==== e(   1) =   -16.04031 eV ==== 
     psi = 0.139*[#   5]+0.139*[#   9]+0.139*[#   1]+0.139*[#  13]+0.080*[#   3]+
          +0.080*[#  15]+0.080*[#   7]+0.080*[#  11]+0.027*[#   4]+0.027*[#   8]+
          +0.027*[#  12]+0.027*[#  16]+
    |psi|^2 = 0.982
==== e(   2) =   -15.95663 eV ==== 
     psi = 0.141*[#   1]+0.141*[#   5]+0.141*[#  13]+0.141*[#   9]+0.079*[#   7]+
          +0.079*[#  11]+0.079*[#   3]+0.079*[#  15]+0.026*[#   4]+0.026*[#   8]+
          +0.026*[#  12]+0.026*[#  16]+
    |psi|^2 = 0.986
==== e(   3) =   -12.23648 eV ==== 
     psi = 0.127*[#   3]+0.127*[#  15]+0.126*[#   7]+0.126*[#  11]+0.078*[#   5]+
          +0.078*[#   9]+0.077*[#   1]+0.077*[#  13]+0.042*[#   4]+0.042*[#  16]+
          +0.042*[#   8]+0.042*[#  12]+
    |psi|^2 = 0.985
==== e(   4) =   -12.17709 eV ==== 
     psi = 0.127*[#   7]+0.127*[#  11]+0.127*[#   3]+0.127*[#  15]+0.078*[#   1]+
          +0.078*[#  13]+0.077*[#   5]+0.077*[#   9]+0.042*[#   8]+0.042*[#  12]+
          +0.042*[#   4]+0.042*[#  16]+
    |psi|^2 = 0.988
==== e(   5) =    -6.77159 eV ==== 
     psi = 0.187*[#   4]+0.187*[#  12]+0.187*[#  16]+0.187*[#   8]+0.062*[#   3]+
          +0.062*[#   7]+0.062*[#  11]+0.062*[#  15]+
    |psi|^2 = 0.996
==== e(   6) =    -6.75358 eV ==== 
     psi = 0.187*[#   4]+0.187*[#   8]+0.187*[#  12]+0.187*[#  16]+0.062*[#   3]+
          +0.062*[#   7]+0.062*[#  11]+0.062*[#  15]+
    |psi|^2 = 0.996
==== e(   7) =    -3.99863 eV ==== 
     psi = 0.250*[#   6]+0.250*[#  10]+0.248*[#   2]+0.248*[#  14]+
    |psi|^2 = 0.996
==== e(   8) =    -3.37092 eV ==== 
     psi = 0.250*[#   2]+0.250*[#  14]+0.248*[#   6]+0.248*[#  10]+
    |psi|^2 = 0.997
==== e(   9) =     1.96614 eV ==== 
     psi = 0.236*[#   6]+0.236*[#  10]+0.234*[#   2]+0.234*[#  14]+
    |psi|^2 = 0.940
==== e(  10) =     2.59121 eV ==== 
     psi = 0.239*[#   2]+0.239*[#  14]+0.237*[#   6]+0.237*[#  10]+
    |psi|^2 = 0.952
==== e(  11) =     6.88570 eV ==== 
     psi = 0.159*[#   1]+0.159*[#  13]+0.159*[#   5]+0.159*[#   9]+0.042*[#   3]+
          +0.042*[#  15]+0.042*[#   7]+0.042*[#  11]+0.014*[#   4]+0.014*[#   8]+
          +0.014*[#  12]+0.014*[#  16]+
    |psi|^2 = 0.860
==== e(  12) =     7.03331 eV ==== 
     psi = 0.161*[#   5]+0.160*[#   9]+0.160*[#   1]+0.160*[#  13]+0.046*[#   7]+
          +0.046*[#   3]+0.046*[#  11]+0.046*[#  15]+0.015*[#   4]+0.015*[#   8]+
          +0.015*[#  12]+0.015*[#  16]+
    |psi|^2 = 0.885

 k =   0.4166666667  0.2405626122  0.0000000000
==== e(   1) =   -16.04031 eV ==== 
     psi = 0.139*[#   1]+0.139*[#  13]+0.139*[#   5]+0.139*[#   9]+0.080*[#   7]+
          +0.080*[#  11]+0.080*[#   3]+0.080*[#  15]+0.027*[#   4]+0.027*[#   8]+
          +0.027*[#  12]+0.027*[#  16]+
    |psi|^2 = 0.982
==== e(   2) =   -15.95663 eV ==== 
     psi = 0.141*[#   5]+0.141*[#   1]+0.141*[#   9]+0.141*[#  13]+0.079*[#   3]+
          +0.079*[#  15]+0.079*[#   7]+0.079*[#  11]+0.026*[#   4]+0.026*[#   8]+
          +0.026*[#  12]+0.026*[#  16]+
    |psi|^2 = 0.986
==== e(   3) =   -12.23648 eV ==== 
     psi = 0.127*[#   7]+0.127*[#  11]+0.126*[#   3]+0.126*[#  15]+0.078*[#   1]+
          +0.078*[#  13]+0.077*[#   5]+0.077*[#   9]+0.042*[#   8]+0.042*[#  12]+
          +0.042*[#   4]+0.042*[#  16]+
    |psi|^2 = 0.985
==== e(   4) =   -12.17709 eV ==== 
     psi = 0.127*[#   3]+0.127*[#  15]+0.127*[#   7]+0.127*[#  11]+0.078*[#   5]+
          +0.078*[#   9]+0.077*[#   1]+0.077*[#  13]+0.042*[#   4]+0.042*[#  16]+
          +0.042*[#   8]+0.042*[#  12]+
    |psi|^2 = 0.988
==== e(   5) =    -6.77159 eV ==== 
     psi = 0.187*[#  12]+0.187*[#   4]+0.187*[#   8]+0.187*[#  16]+0.062*[#   3]+
          +0.062*[#   7]+0.062*[#  11]+0.062*[#  15]+
    |psi|^2 = 0.996
==== e(   6) =    -6.75358 eV ==== 
     psi = 0.187*[#   4]+0.187*[#   8]+0.187*[#  12]+0.187*[#  16]+0.062*[#   3]+
          +0.062*[#   7]+0.062*[#  11]+0.062*[#  15]+
    |psi|^2 = 0.996
==== e(   7) =    -3.99863 eV ==== 
     psi = 0.250*[#   2]+0.250*[#  14]+0.248*[#   6]+0.248*[#  10]+
    |psi|^2 = 0.996
==== e(   8) =    -3.37092 eV ==== 
     psi = 0.250*[#   6]+0.250*[#  10]+0.248*[#   2]+0.248*[#  14]+
    |psi|^2 = 0.997
==== e(   9) =     1.96614 eV ==== 
     psi = 0.236*[#   2]+0.236*[#  14]+0.234*[#   6]+0.234*[#  10]+
    |psi|^2 = 0.940
==== e(  10) =     2.59121 eV ==== 
     psi = 0.239*[#   6]+0.239*[#  10]+0.237*[#   2]+0.237*[#  14]+
    |psi|^2 = 0.952
==== e(  11) =     6.88570 eV ==== 
     psi = 0.159*[#   5]+0.159*[#   9]+0.159*[#   1]+0.159*[#  13]+0.042*[#   7]+
          +0.042*[#  11]+0.042*[#   3]+0.042*[#  15]+0.014*[#   4]+0.014*[#   8]+
          +0.014*[#  12]+0.014*[#  16]+
    |psi|^2 = 0.860
==== e(  12) =     7.03331 eV ==== 
     psi = 0.161*[#   1]+0.160*[#  13]+0.160*[#   5]+0.160*[#   9]+0.046*[#   3]+
          +0.046*[#   7]+0.046*[#  15]+0.046*[#  11]+0.015*[#   4]+0.015*[#   8]+
          +0.015*[#  12]+0.015*[#  16]+
    |psi|^2 = 0.885

 k =   0.5000000000 -0.2886751346  0.0000000000
==== e(   1) =   -14.77958 eV ==== 
     psi = 0.161*[#   5]+0.161*[#   9]+0.160*[#   1]+0.160*[#  13]+0.066*[#   3]+
          +0.066*[#  15]+0.065*[#   7]+0.065*[#  11]+0.022*[#   4]+0.022*[#  16]+
          +0.022*[#   8]+0.022*[#  12]+
    |psi|^2 = 0.992
==== e(   2) =   -14.70071 eV ==== 
     psi = 0.162*[#   1]+0.162*[#  13]+0.161*[#   5]+0.161*[#   9]+0.066*[#   7]+
          +0.066*[#  11]+0.065*[#   3]+0.065*[#  15]+0.022*[#   8]+0.022*[#  12]+
          +0.022*[#   4]+0.022*[#  16]+
    |psi|^2 = 0.994
==== e(   3) =   -13.73859 eV ==== 
     psi = 0.141*[#   3]+0.141*[#  15]+0.140*[#   7]+0.140*[#  11]+0.057*[#   5]+
          +0.057*[#   9]+0.056*[#   1]+0.056*[#  13]+0.047*[#   4]+0.047*[#  16]+
          +0.047*[#   8]+0.047*[#  12]+
    |psi|^2 = 0.976
==== e(   4) =   -13.67407 eV ==== 
     psi = 0.142*[#   7]+0.142*[#  11]+0.141*[#   3]+0.141*[#  15]+0.057*[#   1]+
          +0.057*[#  13]+0.056*[#   5]+0.056*[#   9]+0.047*[#   8]+0.047*[#  12]+
          +0.047*[#   4]+0.047*[#  16]+
    |psi|^2 = 0.981
==== e(   5) =    -6.93336 eV ==== 
     psi = 0.187*[#   4]+0.187*[#  12]+0.187*[#  16]+0.187*[#   8]+0.062*[#   3]+
          +0.062*[#   7]+0.062*[#  11]+0.062*[#  15]+
    |psi|^2 = 0.996
==== e(   6) =    -6.91514 eV ==== 
     psi = 0.187*[#   4]+0.187*[#   8]+0.187*[#  12]+0.187*[#  16]+0.062*[#   3]+
          +0.062*[#   7]+0.062*[#  11]+0.062*[#  15]+
    |psi|^2 = 0.996
==== e(   7) =    -3.12545 eV ==== 
     psi = 0.252*[#   6]+0.252*[#  10]+0.247*[#   2]+0.247*[#  14]+
    |psi|^2 = 0.998
==== e(   8) =    -2.56598 eV ==== 
     psi = 0.253*[#   2]+0.253*[#  14]+0.246*[#   6]+0.246*[#  10]+
    |psi|^2 = 0.998
==== e(   9) =     0.83260 eV ==== 
     psi = 0.239*[#   6]+0.239*[#  10]+0.233*[#   2]+0.233*[#  14]+
    |psi|^2 = 0.944
==== e(  10) =     1.54291 eV ==== 
     psi = 0.241*[#   2]+0.241*[#  14]+0.236*[#   6]+0.236*[#  10]+
    |psi|^2 = 0.953
==== e(  11) =     6.80888 eV ==== 
     psi = 0.167*[#   1]+0.167*[#  13]+0.167*[#   5]+0.167*[#   9]+0.040*[#   3]+
          +0.040*[#   7]+0.040*[#  11]+0.040*[#  15]+0.013*[#   4]+0.013*[#   8]+
          +0.013*[#  12]+0.013*[#  16]+
    |psi|^2 = 0.880
==== e(  12) =     6.95345 eV ==== 
     psi = 0.168*[#   5]+0.168*[#   9]+0.167*[#   1]+0.167*[#  13]+0.041*[#   3]+
          +0.041*[#   7]+0.041*[#  11]+0.041*[#  15]+0.014*[#   4]+0.014*[#   8]+
          +0.014*[#  12]+0.014*[#  16]+
    |psi|^2 = 0.888

 k =  -0.5000000000 -0.2886751346  0.0000000000
==== e(   1) =   -14.77958 eV ==== 
     psi = 0.161*[#   1]+0.161*[#  13]+0.160*[#   5]+0.160*[#   9]+0.066*[#   7]+
          +0.066*[#  11]+0.065*[#   3]+0.065*[#  15]+0.022*[#   8]+0.022*[#  12]+
          +0.022*[#   4]+0.022*[#  16]+
    |psi|^2 = 0.992
==== e(   2) =   -14.70071 eV ==== 
     psi = 0.162*[#   5]+0.162*[#   9]+0.161*[#   1]+0.161*[#  13]+0.066*[#   3]+
          +0.066*[#  15]+0.065*[#   7]+0.065*[#  11]+0.022*[#   4]+0.022*[#  16]+
          +0.022*[#   8]+0.022*[#  12]+
    |psi|^2 = 0.994
==== e(   3) =   -13.73859 eV ==== 
     psi = 0.141*[#   7]+0.141*[#  11]+0.140*[#   3]+0.140*[#  15]+0.057*[#   1]+
          +0.057*[#  13]+0.056*[#   5]+0.056*[#   9]+0.047*[#   8]+0.047*[#  12]+
          +0.047*[#   4]+0.047*[#  16]+
    |psi|^2 = 0.976
==== e(   4) =   -13.67407 eV ==== 
     psi = 0.142*[#   3]+0.142*[#  15]+0.141*[#   7]+0.141*[#  11]+0.057*[#   5]+
          +0.057*[#   9]+0.056*[#   1]+0.056*[#  13]+0.047*[#   4]+0.047*[#  16]+
          +0.047*[#   8]+0.047*[#  12]+
    |psi|^2 = 0.981
==== e(   5) =    -6.93336 eV ==== 
     psi = 0.187*[#  12]+0.187*[#   4]+0.187*[#   8]+0.187*[#  16]+0.062*[#   3]+
          +0.062*[#   7]+0.062*[#  11]+0.062*[#  15]+
    |psi|^2 = 0.996
==== e(   6) =    -6.91514 eV ==== 
     psi = 0.187*[#   4]+0.187*[#   8]+0.187*[#  12]+0.187*[#  16]+0.062*[#   3]+
          +0.062*[#   7]+0.062*[#  11]+0.062*[#  15]+
    |psi|^2 = 0.996
==== e(   7) =    -3.12545 eV ==== 
     psi = 0.252*[#   2]+0.252*[#  14]+0.247*[#   6]+0.247*[#  10]+
    |psi|^2 = 0.998
==== e(   8) =    -2.56598 eV ==== 
     psi = 0.253*[#   6]+0.253*[#  10]+0.246*[#   2]+0.246*[#  14]+
    |psi|^2 = 0.998
==== e(   9) =     0.83260 eV ==== 
     psi = 0.239*[#   2]+0.239*[#  14]+0.233*[#   6]+0.233*[#  10]+
    |psi|^2 = 0.944
==== e(  10) =     1.54291 eV ==== 
     psi = 0.241*[#   6]+0.241*[#  10]+0.236*[#   2]+0.236*[#  14]+
    |psi|^2 = 0.953
==== e(  11) =     6.80888 eV ==== 
     psi = 0.167*[#   5]+0.167*[#   9]+0.167*[#   1]+0.167*[#  13]+0.040*[#   3]+
          +0.040*[#   7]+0.040*[#  11]+0.040*[#  15]+0.013*[#   4]+0.013*[#   8]+
          +0.013*[#  12]+0.013*[#  16]+
    |psi|^2 = 0.880
==== e(  12) =     6.95345 eV ==== 
     psi = 0.168*[#   1]+0.168*[#  13]+0.167*[#   5]+0.167*[#   9]+0.041*[#   3]+
          +0.041*[#   7]+0.041*[#  11]+0.041*[#  15]+0.014*[#   4]+0.014*[#   8]+
          +0.014*[#  12]+0.014*[#  16]+
    |psi|^2 = 0.888

 k =  -0.0833333333  0.1443375673  0.0000000000
==== e(   1) =   -19.52906 eV ==== 
     psi = 0.210*[#   1]+0.210*[#   5]+0.210*[#   9]+0.210*[#  13]+0.026*[#   4]+
          +0.026*[#   8]+0.026*[#  12]+0.026*[#  16]+0.009*[#   3]+0.009*[#   7]+
          +0.009*[#  11]+0.009*[#  15]+
    |psi|^2 = 0.978
==== e(   2) =   -19.42383 eV ==== 
     psi = 0.213*[#   1]+0.213*[#   5]+0.213*[#   9]+0.213*[#  13]+0.025*[#   4]+
          +0.025*[#   8]+0.025*[#  12]+0.025*[#  16]+0.008*[#   3]+0.008*[#   7]+
          +0.008*[#  11]+0.008*[#  15]+
    |psi|^2 = 0.985
==== e(   3) =    -7.88619 eV ==== 
     psi = 0.240*[#   2]+0.240*[#   6]+0.240*[#  10]+0.240*[#  14]+
    |psi|^2 = 0.960
==== e(   4) =    -7.11281 eV ==== 
     psi = 0.243*[#   2]+0.243*[#   6]+0.243*[#  10]+0.243*[#  14]+
    |psi|^2 = 0.974
==== e(   5) =    -5.24589 eV ==== 
     psi = 0.163*[#   4]+0.163*[#  16]+0.163*[#   8]+0.163*[#  12]+0.066*[#   7]+
          +0.066*[#  11]+0.066*[#   3]+0.066*[#  15]+0.021*[#   1]+0.020*[#   5]+
          +0.021*[#   9]+0.021*[#  13]+
    |psi|^2 = 0.998
==== e(   6) =    -5.22455 eV ==== 
     psi = 0.163*[#   8]+0.163*[#   4]+0.163*[#  12]+0.163*[#  16]+0.066*[#   3]+
          +0.066*[#   7]+0.066*[#  11]+0.066*[#  15]+0.020*[#   1]+0.021*[#   5]+
          +0.021*[#   9]+0.020*[#  13]+
    |psi|^2 = 0.998
==== e(   7) =    -4.57913 eV ==== 
     psi = 0.175*[#  11]+0.175*[#  15]+0.175*[#   3]+0.175*[#   7]+0.070*[#   4]+
          +0.070*[#   8]+0.070*[#  12]+0.070*[#  16]+0.003*[#   1]+0.003*[#   5]+
          +0.003*[#   9]+0.003*[#  13]+
    |psi|^2 = 0.994
==== e(   8) =    -4.56357 eV ==== 
     psi = 0.175*[#   3]+0.175*[#   7]+0.175*[#  11]+0.175*[#  15]+0.071*[#   4]+
          +0.071*[#   8]+0.071*[#  12]+0.071*[#  16]+0.003*[#   1]+0.003*[#   5]+
          +0.003*[#   9]+0.003*[#  13]+
    |psi|^2 = 0.996
==== e(   9) =     3.55806 eV ==== 
     psi = 0.007*[#   4]+0.007*[#   8]+0.007*[#  12]+0.007*[#  16]+0.002*[#   3]+
          +0.002*[#   7]+0.002*[#  11]+0.002*[#  15]+
    |psi|^2 = 0.040
==== e(  10) =     3.96474 eV ==== 
     psi = 0.003*[#   2]+0.003*[#   6]+0.003*[#  10]+0.003*[#  14]+0.002*[#   4]+
          +0.002*[#   8]+0.002*[#  12]+0.002*[#  16]+
    |psi|^2 = 0.025
==== e(  11) =     4.69290 eV ==== 
     psi = 0.001*[#   4]+0.001*[#   8]+0.001*[#  12]+0.001*[#  16]+
    |psi|^2 = 0.007
==== e(  12) =     5.89552 eV ==== 
     psi = 0.001*[#   2]+0.001*[#   6]+0.001*[#  10]+0.001*[#  14]+
    |psi|^2 = 0.008

 k =   0.1666666667 -0.0000000000  0.0000000000
==== e(   1) =   -19.52906 eV ==== 
     psi = 0.210*[#   1]+0.210*[#   5]+0.210*[#   9]+0.210*[#  13]+0.034*[#   3]+
          +0.034*[#   7]+0.034*[#  11]+0.034*[#  15]+
    |psi|^2 = 0.978
==== e(   2) =   -19.42382 eV ==== 
     psi = 0.213*[#   1]+0.213*[#   5]+0.213*[#   9]+0.213*[#  13]+0.033*[#   3]+
          +0.033*[#   7]+0.033*[#  11]+0.033*[#  15]+
    |psi|^2 = 0.985
==== e(   3) =    -7.88620 eV ==== 
     psi = 0.240*[#   2]+0.240*[#   6]+0.240*[#  10]+0.240*[#  14]+
    |psi|^2 = 0.960
==== e(   4) =    -7.11283 eV ==== 
     psi = 0.243*[#   2]+0.243*[#   6]+0.243*[#  10]+0.243*[#  14]+
    |psi|^2 = 0.974
==== e(   5) =    -5.24490 eV ==== 
     psi = 0.211*[#  11]+0.211*[#  15]+0.211*[#   3]+0.211*[#   7]+0.021*[#   1]+
          +0.021*[#   5]+0.021*[#   9]+0.021*[#  13]+0.017*[#   4]+0.017*[#   8]+
          +0.017*[#  12]+0.017*[#  16]+
    |psi|^2 = 0.998
==== e(   6) =    -5.22349 eV ==== 
     psi = 0.212*[#   3]+0.212*[#   7]+0.211*[#  11]+0.211*[#  15]+0.020*[#   1]+
          +0.020*[#   5]+0.020*[#   9]+0.020*[#  13]+0.017*[#   4]+0.017*[#   8]+
          +0.017*[#  12]+0.017*[#  16]+
    |psi|^2 = 0.998
==== e(   7) =    -4.58026 eV ==== 
     psi = 0.228*[#  12]+0.228*[#  16]+0.227*[#   4]+0.227*[#   8]+0.018*[#   3]+
          +0.018*[#   7]+0.018*[#  11]+0.018*[#  15]+0.003*[#   1]+0.003*[#   5]+
          +0.003*[#   9]+0.003*[#  13]+
    |psi|^2 = 0.994
==== e(   8) =    -4.56461 eV ==== 
     psi = 0.227*[#   4]+0.227*[#   8]+0.227*[#  12]+0.227*[#  16]+0.019*[#   3]+
          +0.019*[#   7]+0.019*[#  11]+0.019*[#  15]+0.003*[#   1]+0.003*[#   5]+
          +0.003*[#   9]+0.003*[#  13]+
    |psi|^2 = 0.996
==== e(   9) =     3.55805 eV ==== 
     psi = 0.009*[#   3]+0.009*[#   7]+0.009*[#  11]+0.009*[#  15]+
    |psi|^2 = 0.040
==== e(  10) =     3.96473 eV ==== 
     psi = 0.003*[#   2]+0.003*[#   6]+0.003*[#  10]+0.003*[#  14]+0.003*[#   3]+
          +0.003*[#   7]+0.003*[#  11]+0.003*[#  15]+
    |psi|^2 = 0.025
==== e(  11) =     4.69290 eV ==== 
     psi = 0.002*[#   3]+0.002*[#   7]+0.002*[#  11]+0.002*[#  15]+
    |psi|^2 = 0.007
==== e(  12) =     5.89551 eV ==== 
     psi = 0.001*[#   2]+0.001*[#   6]+0.001*[#  10]+0.001*[#  14]+
    |psi|^2 = 0.008

 k =  -0.0833333333  0.2405626122  0.0000000000
==== e(   1) =   -18.87839 eV ==== 
     psi = 0.183*[#   1]+0.183*[#   5]+0.183*[#   9]+0.183*[#  13]+0.054*[#   4]+
          +0.054*[#   8]+0.054*[#  12]+0.054*[#  16]+0.007*[#   3]+0.007*[#   7]+
          +0.007*[#  11]+0.007*[#  15]+
    |psi|^2 = 0.977
==== e(   2) =   -18.77746 eV ==== 
     psi = 0.186*[#   1]+0.186*[#   5]+0.186*[#   9]+0.186*[#  13]+0.053*[#   4]+
          +0.053*[#   8]+0.053*[#  12]+0.053*[#  16]+0.006*[#   3]+0.006*[#   7]+
          +0.006*[#  11]+0.006*[#  15]+
    |psi|^2 = 0.984
==== e(   3) =    -7.11151 eV ==== 
     psi = 0.243*[#   2]+0.243*[#   6]+0.243*[#  10]+0.243*[#  14]+
    |psi|^2 = 0.973
==== e(   4) =    -6.95048 eV ==== 
     psi = 0.195*[#   4]+0.195*[#   8]+0.196*[#  12]+0.196*[#  16]+0.039*[#   1]+
          +0.039*[#   5]+0.039*[#   9]+0.039*[#  13]+0.014*[#   3]+0.014*[#   7]+
          +0.014*[#  11]+0.014*[#  15]+
    |psi|^2 = 0.995
==== e(   5) =    -6.91993 eV ==== 
     psi = 0.196*[#   4]+0.196*[#   8]+0.196*[#  12]+0.196*[#  16]+0.039*[#   1]+
          +0.039*[#   5]+0.039*[#   9]+0.039*[#  13]+0.014*[#   3]+0.014*[#   7]+
          +0.014*[#  11]+0.014*[#  15]+
    |psi|^2 = 0.996
==== e(   6) =    -6.35885 eV ==== 
     psi = 0.246*[#   2]+0.246*[#   6]+0.246*[#  10]+0.246*[#  14]+
    |psi|^2 = 0.984
==== e(   7) =    -5.57317 eV ==== 
     psi = 0.226*[#  15]+0.226*[#   3]+0.226*[#  11]+0.226*[#   7]+0.016*[#   4]+
          +0.016*[#   8]+0.016*[#  12]+0.016*[#  16]+0.006*[#   1]+0.006*[#   5]+
          +0.006*[#   9]+0.006*[#  13]+
    |psi|^2 = 0.993
==== e(   8) =    -5.55403 eV ==== 
     psi = 0.226*[#   3]+0.226*[#   7]+0.226*[#  11]+0.226*[#  15]+0.017*[#   4]+
          +0.017*[#   8]+0.017*[#  12]+0.017*[#  16]+0.006*[#   1]+0.006*[#   5]+
          +0.006*[#   9]+0.006*[#  13]+
    |psi|^2 = 0.995
==== e(   9) =     4.43911 eV ==== 
     psi = 0.009*[#   4]+0.009*[#   8]+0.009*[#  12]+0.009*[#  16]+0.001*[#   3]+
          +0.001*[#   7]+0.001*[#  11]+0.001*[#  15]+
    |psi|^2 = 0.043
==== e(  10) =     4.85405 eV ==== 
     psi = 0.003*[#   4]+0.003*[#   8]+0.003*[#  12]+0.003*[#  16]+0.002*[#   2]+
          +0.002*[#   6]+0.002*[#  10]+0.002*[#  14]+
    |psi|^2 = 0.022
==== e(  11) =     5.59451 eV ==== 
[...]
     psi = 0.252*[#   2]+0.252*[#  14]+0.247*[#   6]+0.247*[#  10]+
    |psi|^2 = 0.998
==== e(   8) =    -1.97490 eV ==== 
     psi = 0.253*[#   6]+0.253*[#  10]+0.245*[#   2]+0.245*[#  14]+
    |psi|^2 = 0.997
==== e(   9) =     0.65278 eV ==== 
     psi = 0.245*[#   2]+0.245*[#  14]+0.237*[#   6]+0.237*[#  10]+
    |psi|^2 = 0.965
==== e(  10) =     1.26245 eV ==== 
     psi = 0.246*[#   6]+0.246*[#  10]+0.240*[#   2]+0.240*[#  14]+
    |psi|^2 = 0.972
==== e(  11) =     9.29137 eV ==== 
     psi = 0.133*[#   1]+0.133*[#   5]+0.133*[#   9]+0.133*[#  13]+0.042*[#   3]+
          +0.042*[#   7]+0.042*[#  11]+0.042*[#  15]+0.027*[#   4]+0.027*[#   8]+
          +0.027*[#  12]+0.027*[#  16]+
    |psi|^2 = 0.813
==== e(  12) =     9.51114 eV ==== 
     psi = 0.137*[#   1]+0.137*[#  13]+0.136*[#   5]+0.136*[#   9]+0.045*[#   3]+
          +0.045*[#   7]+0.045*[#  11]+0.045*[#  15]+0.029*[#   8]+0.029*[#  12]+
          +0.029*[#   4]+0.029*[#  16]+
    |psi|^2 = 0.840

 k =  -0.2500000000  0.4330127019  0.0000000000
==== e(   1) =   -15.73720 eV ==== 
     psi = 0.132*[#   1]+0.132*[#   5]+0.132*[#   9]+0.132*[#  13]+0.083*[#   4]+
          +0.083*[#   8]+0.083*[#  12]+0.083*[#  16]+0.030*[#   3]+0.030*[#   7]+
          +0.030*[#  11]+0.030*[#  15]+
    |psi|^2 = 0.982
==== e(   2) =   -15.65590 eV ==== 
     psi = 0.134*[#   1]+0.134*[#   5]+0.134*[#   9]+0.134*[#  13]+0.083*[#   4]+
          +0.083*[#   8]+0.083*[#  12]+0.083*[#  16]+0.030*[#   3]+0.030*[#   7]+
          +0.030*[#  11]+0.030*[#  15]+
    |psi|^2 = 0.987
==== e(   3) =   -11.03566 eV ==== 
     psi = 0.097*[#   4]+0.097*[#  16]+0.097*[#   8]+0.097*[#  12]+0.087*[#   1]+
          +0.087*[#  13]+0.087*[#   5]+0.087*[#   9]+0.065*[#   7]+0.065*[#  11]+
          +0.064*[#   3]+0.064*[#  15]+
    |psi|^2 = 0.994
==== e(   4) =   -10.98333 eV ==== 
     psi = 0.098*[#   8]+0.097*[#  12]+0.097*[#   4]+0.097*[#  16]+0.087*[#   5]+
          +0.087*[#   9]+0.087*[#   1]+0.087*[#  13]+0.065*[#   3]+0.065*[#  15]+
          +0.064*[#   7]+0.064*[#  11]+
    |psi|^2 = 0.995
==== e(   5) =    -9.46401 eV ==== 
     psi = 0.149*[#   7]+0.149*[#  11]+0.149*[#   3]+0.149*[#  15]+0.080*[#   4]+
          +0.080*[#   8]+0.080*[#  12]+0.080*[#  16]+0.017*[#   1]+0.017*[#  13]+
          +0.017*[#   5]+0.017*[#   9]+
    |psi|^2 = 0.986
==== e(   6) =    -9.42432 eV ==== 
     psi = 0.149*[#   3]+0.149*[#  15]+0.149*[#   7]+0.149*[#  11]+0.081*[#   4]+
          +0.081*[#   8]+0.081*[#  12]+0.081*[#  16]+0.017*[#   5]+0.017*[#   9]+
          +0.017*[#   1]+0.017*[#  13]+
    |psi|^2 = 0.989
==== e(   7) =    -3.53444 eV ==== 
     psi = 0.249*[#   6]+0.249*[#  10]+0.249*[#   2]+0.249*[#  14]+
    |psi|^2 = 0.996
==== e(   8) =    -2.90601 eV ==== 
     psi = 0.250*[#   2]+0.250*[#  14]+0.249*[#   6]+0.249*[#  10]+
    |psi|^2 = 0.996
==== e(   9) =     2.08190 eV ==== 
     psi = 0.246*[#   6]+0.246*[#  10]+0.245*[#   2]+0.245*[#  14]+
    |psi|^2 = 0.981
==== e(  10) =     2.54450 eV ==== 
     psi = 0.246*[#   2]+0.246*[#  14]+0.245*[#   6]+0.245*[#  10]+
    |psi|^2 = 0.983
==== e(  11) =     8.76676 eV ==== 
     psi = 0.001*[#   1]+0.001*[#   5]+0.001*[#   9]+0.001*[#  13]+0.001*[#   4]+
          +0.001*[#   8]+0.001*[#  12]+0.001*[#  16]+
    |psi|^2 = 0.011
==== e(  12) =     9.16349 eV ==== 
     psi = 
    |psi|^2 = 0.004

 k =   0.5000000000 -0.0000000000  0.0000000000
==== e(   1) =   -15.73719 eV ==== 
     psi = 0.132*[#   1]+0.132*[#   5]+0.132*[#   9]+0.132*[#  13]+0.110*[#   3]+
          +0.110*[#   7]+0.110*[#  11]+0.110*[#  15]+0.004*[#   4]+0.004*[#   8]+
          +0.004*[#  12]+0.004*[#  16]+
    |psi|^2 = 0.982
==== e(   2) =   -15.65590 eV ==== 
     psi = 0.134*[#   1]+0.134*[#   5]+0.134*[#   9]+0.134*[#  13]+0.109*[#   3]+
          +0.109*[#   7]+0.109*[#  11]+0.109*[#  15]+0.004*[#   4]+0.004*[#   8]+
          +0.004*[#  12]+0.004*[#  16]+
    |psi|^2 = 0.987
==== e(   3) =   -11.03520 eV ==== 
     psi = 0.114*[#   3]+0.114*[#   7]+0.114*[#  11]+0.114*[#  15]+0.087*[#   1]+
          +0.087*[#   5]+0.087*[#   9]+0.087*[#  13]+0.048*[#   4]+0.048*[#   8]+
          +0.048*[#  12]+0.048*[#  16]+
    |psi|^2 = 0.994
==== e(   4) =   -10.98267 eV ==== 
     psi = 0.114*[#   3]+0.114*[#   7]+0.114*[#  11]+0.114*[#  15]+0.087*[#   1]+
          +0.087*[#   5]+0.087*[#   9]+0.087*[#  13]+0.048*[#   4]+0.048*[#   8]+
          +0.048*[#  12]+0.048*[#  16]+
    |psi|^2 = 0.995
==== e(   5) =    -9.46470 eV ==== 
     psi = 0.183*[#   4]+0.183*[#   8]+0.183*[#  12]+0.183*[#  16]+0.046*[#   3]+
          +0.046*[#   7]+0.046*[#  11]+0.046*[#  15]+0.017*[#   1]+0.017*[#   5]+
          +0.017*[#   9]+0.017*[#  13]+
    |psi|^2 = 0.986
==== e(   6) =    -9.42486 eV ==== 
     psi = 0.183*[#   4]+0.183*[#   8]+0.183*[#  12]+0.183*[#  16]+0.047*[#   3]+
          +0.047*[#   7]+0.047*[#  11]+0.047*[#  15]+0.017*[#   1]+0.017*[#   5]+
          +0.017*[#   9]+0.017*[#  13]+
    |psi|^2 = 0.989
==== e(   7) =    -3.53454 eV ==== 
     psi = 0.249*[#   2]+0.249*[#   6]+0.249*[#  10]+0.249*[#  14]+
    |psi|^2 = 0.996
==== e(   8) =    -2.90637 eV ==== 
     psi = 0.249*[#   2]+0.249*[#   6]+0.249*[#  10]+0.249*[#  14]+
    |psi|^2 = 0.996
==== e(   9) =     2.08157 eV ==== 
     psi = 0.245*[#   2]+0.245*[#   6]+0.245*[#  10]+0.245*[#  14]+
    |psi|^2 = 0.981
==== e(  10) =     2.54591 eV ==== 
     psi = 0.246*[#   2]+0.246*[#   6]+0.246*[#  10]+0.246*[#  14]+
    |psi|^2 = 0.983
==== e(  11) =     8.76676 eV ==== 
     psi = 0.001*[#   1]+0.001*[#   3]+0.001*[#   5]+0.001*[#   7]+0.001*[#   9]+
          +0.001*[#  11]+0.001*[#  13]+0.001*[#  15]+
    |psi|^2 = 0.011
==== e(  12) =     9.16297 eV ==== 
     psi = 
    |psi|^2 = 0.004

 k =  -0.2500000000  0.5292377468  0.0000000000
==== e(   1) =   -14.31583 eV ==== 
     psi = 0.126*[#   1]+0.126*[#   5]+0.126*[#   9]+0.126*[#  13]+0.090*[#   4]+
          +0.090*[#   8]+0.090*[#  12]+0.090*[#  16]+0.031*[#   3]+0.031*[#   7]+
          +0.031*[#  11]+0.031*[#  15]+
    |psi|^2 = 0.988
==== e(   2) =   -14.24242 eV ==== 
     psi = 0.127*[#   1]+0.127*[#   5]+0.127*[#  13]+0.127*[#   9]+0.090*[#   4]+
          +0.090*[#   8]+0.090*[#  12]+0.090*[#  16]+0.031*[#   3]+0.031*[#   7]+
          +0.031*[#  11]+0.031*[#  15]+
    |psi|^2 = 0.991
==== e(   3) =   -12.45534 eV ==== 
     psi = 0.140*[#   4]+0.140*[#  16]+0.139*[#   8]+0.139*[#  12]+0.092*[#   1]+
          +0.092*[#   5]+0.092*[#   9]+0.092*[#  13]+0.016*[#   7]+0.016*[#  11]+
          +0.016*[#   3]+0.016*[#  15]+
    |psi|^2 = 0.989
==== e(   4) =   -12.39485 eV ==== 
     psi = 0.140*[#   8]+0.140*[#  12]+0.140*[#   4]+0.140*[#  16]+0.092*[#   1]+
          +0.092*[#   5]+0.092*[#   9]+0.092*[#  13]+0.016*[#   3]+0.016*[#  15]+
          +0.016*[#   7]+0.016*[#  11]+
    |psi|^2 = 0.991
==== e(   5) =   -10.17000 eV ==== 
     psi = 0.195*[#   3]+0.195*[#   7]+0.195*[#  11]+0.195*[#  15]+0.031*[#   4]+
          +0.031*[#   8]+0.031*[#  12]+0.031*[#  16]+0.020*[#   1]+0.020*[#   5]+
          +0.020*[#   9]+0.020*[#  13]+
    |psi|^2 = 0.986
==== e(   6) =   -10.12677 eV ==== 
     psi = 0.196*[#   3]+0.196*[#   7]+0.196*[#  11]+0.196*[#  15]+0.031*[#   4]+
          +0.031*[#   8]+0.031*[#  12]+0.031*[#  16]+0.020*[#   1]+0.020*[#   5]+
          +0.020*[#   9]+0.020*[#  13]+
    |psi|^2 = 0.988
==== e(   7) =    -2.12274 eV ==== 
     psi = 0.250*[#   6]+0.250*[#  10]+0.248*[#   2]+0.248*[#  14]+
    |psi|^2 = 0.996
==== e(   8) =    -1.56074 eV ==== 
     psi = 0.250*[#   2]+0.250*[#  14]+0.248*[#   6]+0.248*[#  10]+
    |psi|^2 = 0.996
==== e(   9) =     0.54255 eV ==== 
     psi = 0.247*[#   6]+0.247*[#  10]+0.245*[#   2]+0.245*[#  14]+
    |psi|^2 = 0.984
==== e(  10) =     1.05773 eV ==== 
     psi = 0.247*[#   2]+0.247*[#  14]+0.246*[#   6]+0.246*[#  10]+
    |psi|^2 = 0.986
==== e(  11) =     9.74330 eV ==== 
     psi = 0.001*[#   2]+0.001*[#   6]+0.001*[#  10]+0.001*[#  14]+
    |psi|^2 = 0.009
==== e(  12) =    10.74833 eV ==== 
     psi = 0.012*[#   1]+0.012*[#   5]+0.012*[#   9]+0.012*[#  13]+0.004*[#   3]+
          +0.004*[#  15]+0.004*[#   7]+0.004*[#  11]+0.001*[#   8]+0.001*[#  12]+
          +0.001*[#   4]+0.001*[#  16]+
    |psi|^2 = 0.070

 k =  -0.3333333333  0.4811252243  0.0000000000
==== e(   1) =   -14.31590 eV ==== 
     psi = 0.126*[#   5]+0.126*[#   9]+0.126*[#   1]+0.126*[#  13]+0.078*[#   4]+
          +0.078*[#  16]+0.078*[#   8]+0.078*[#  12]+0.043*[#   3]+0.043*[#  15]+
          +0.043*[#   7]+0.043*[#  11]+
    |psi|^2 = 0.988
==== e(   2) =   -14.24254 eV ==== 
     psi = 0.127*[#   1]+0.127*[#  13]+0.127*[#   5]+0.127*[#   9]+0.078*[#   8]+
          +0.078*[#  12]+0.078*[#   4]+0.078*[#  16]+0.043*[#   7]+0.043*[#  11]+
          +0.043*[#   3]+0.043*[#  15]+
    |psi|^2 = 0.991
==== e(   3) =   -12.45494 eV ==== 
     psi = 0.125*[#   3]+0.125*[#   7]+0.125*[#  11]+0.125*[#  15]+0.092*[#   5]+
          +0.092*[#   9]+0.092*[#   1]+0.092*[#  13]+0.031*[#   4]+0.031*[#  16]+
          +0.030*[#   8]+0.031*[#  12]+
    |psi|^2 = 0.989
==== e(   4) =   -12.39447 eV ==== 
     psi = 0.125*[#   3]+0.125*[#   7]+0.125*[#  11]+0.125*[#  15]+0.092*[#   1]+
          +0.092*[#  13]+0.092*[#   5]+0.092*[#   9]+0.031*[#   8]+0.031*[#  12]+
          +0.030*[#   4]+0.030*[#  16]+
    |psi|^2 = 0.991
==== e(   5) =   -10.17035 eV ==== 
     psi = 0.143*[#   4]+0.143*[#   8]+0.143*[#  12]+0.143*[#  16]+0.083*[#   7]+
          +0.083*[#  11]+0.083*[#   3]+0.083*[#  15]+0.020*[#   1]+0.020*[#  13]+
          +0.020*[#   5]+0.020*[#   9]+
    |psi|^2 = 0.986
==== e(   6) =   -10.12710 eV ==== 
     psi = 0.144*[#   4]+0.144*[#   8]+0.144*[#  12]+0.144*[#  16]+0.083*[#   3]+
          +0.083*[#  15]+0.083*[#   7]+0.083*[#  11]+0.020*[#   5]+0.020*[#   9]+
          +0.020*[#   1]+0.020*[#  13]+
    |psi|^2 = 0.988
==== e(   7) =    -2.12259 eV ==== 
     psi = 0.251*[#   6]+0.251*[#  10]+0.247*[#   2]+0.247*[#  14]+
    |psi|^2 = 0.996
==== e(   8) =    -1.56163 eV ==== 
     psi = 0.252*[#   2]+0.252*[#  14]+0.246*[#   6]+0.246*[#  10]+
    |psi|^2 = 0.996
==== e(   9) =     0.54309 eV ==== 
     psi = 0.249*[#   6]+0.249*[#  10]+0.243*[#   2]+0.243*[#  14]+
    |psi|^2 = 0.984
==== e(  10) =     1.05822 eV ==== 
     psi = 0.249*[#   2]+0.249*[#  14]+0.244*[#   6]+0.244*[#  10]+
    |psi|^2 = 0.986
==== e(  11) =     9.74307 eV ==== 
     psi = 0.001*[#   2]+0.001*[#   6]+0.001*[#  10]+0.001*[#  14]+
    |psi|^2 = 0.009
==== e(  12) =    10.74859 eV ==== 
     psi = 0.012*[#   5]+0.012*[#   9]+0.012*[#   1]+0.012*[#  13]+0.003*[#   3]+
          +0.003*[#  15]+0.003*[#   7]+0.003*[#  11]+0.002*[#   4]+0.002*[#   8]+
          +0.002*[#  12]+0.002*[#  16]+
    |psi|^2 = 0.069

 k =   0.5833333333  0.0481125224  0.0000000000
==== e(   1) =   -14.31592 eV ==== 
     psi = 0.126*[#   1]+0.126*[#  13]+0.126*[#   5]+0.126*[#   9]+0.107*[#   7]+
          +0.107*[#  11]+0.107*[#   3]+0.107*[#  15]+0.014*[#   4]+0.014*[#   8]+
          +0.014*[#  12]+0.014*[#  16]+
    |psi|^2 = 0.988
==== e(   2) =   -14.24258 eV ==== 
     psi = 0.127*[#   5]+0.127*[#   9]+0.127*[#   1]+0.127*[#  13]+0.107*[#   3]+
          +0.107*[#  15]+0.107*[#   7]+0.107*[#  11]+0.014*[#   4]+0.014*[#   8]+
          +0.014*[#  12]+0.014*[#  16]+
    |psi|^2 = 0.991
==== e(   3) =   -12.45480 eV ==== 
     psi = 0.092*[#   7]+0.092*[#  11]+0.092*[#   3]+0.092*[#  15]+0.092*[#   1]+
          +0.092*[#  13]+0.092*[#   5]+0.092*[#   9]+0.063*[#   4]+0.063*[#   8]+
          +0.063*[#  12]+0.063*[#  16]+
    |psi|^2 = 0.989
==== e(   4) =   -12.39421 eV ==== 
     psi = 0.093*[#   3]+0.093*[#  15]+0.092*[#   7]+0.092*[#   5]+0.092*[#  11]+
          +0.092*[#   9]+0.092*[#   1]+0.092*[#  13]+0.063*[#   4]+0.063*[#   8]+
          +0.063*[#  12]+0.063*[#  16]+
    |psi|^2 = 0.991
==== e(   5) =   -10.17056 eV ==== 
     psi = 0.165*[#   4]+0.165*[#   8]+0.165*[#  12]+0.165*[#  16]+0.061*[#   3]+
          +0.061*[#  15]+0.061*[#   7]+0.061*[#  11]+0.020*[#   1]+0.020*[#   5]+
          +0.020*[#   9]+0.020*[#  13]+
    |psi|^2 = 0.986
==== e(   6) =   -10.12725 eV ==== 
     psi = 0.165*[#   4]+0.165*[#   8]+0.165*[#  12]+0.165*[#  16]+0.062*[#   3]+
          +0.062*[#   7]+0.062*[#  11]+0.062*[#  15]+0.020*[#   1]+0.020*[#   5]+
          +0.020*[#   9]+0.020*[#  13]+
    |psi|^2 = 0.988
==== e(   7) =    -2.12272 eV ==== 
     psi = 0.250*[#   2]+0.250*[#  14]+0.248*[#   6]+0.248*[#  10]+
    |psi|^2 = 0.996
==== e(   8) =    -1.56187 eV ==== 
     psi = 0.251*[#   6]+0.251*[#  10]+0.247*[#   2]+0.247*[#  14]+
    |psi|^2 = 0.996
==== e(   9) =     0.54270 eV ==== 
     psi = 0.249*[#   2]+0.249*[#  14]+0.244*[#   6]+0.244*[#  10]+
    |psi|^2 = 0.984
==== e(  10) =     1.05922 eV ==== 
     psi = 0.248*[#   6]+0.248*[#  10]+0.245*[#   2]+0.245*[#  14]+
    |psi|^2 = 0.986
==== e(  11) =     9.74270 eV ==== 
     psi = 0.001*[#   2]+0.001*[#   6]+0.001*[#  10]+0.001*[#  14]+
    |psi|^2 = 0.009
==== e(  12) =    10.74759 eV ==== 
     psi = 0.012*[#   1]+0.012*[#  13]+0.012*[#   5]+0.012*[#   9]+0.004*[#   8]+
          +0.004*[#  12]+0.004*[#   4]+0.004*[#  16]+0.001*[#   3]+0.001*[#   7]+
          +0.001*[#  11]+0.001*[#  15]+
    |psi|^2 = 0.070

 k =  -0.3333333333 -0.4811252243  0.0000000000
==== e(   1) =   -14.31590 eV ==== 
     psi = 0.126*[#   1]+0.126*[#  13]+0.126*[#   5]+0.126*[#   9]+0.078*[#   8]+
          +0.078*[#  12]+0.078*[#   4]+0.078*[#  16]+0.043*[#   7]+0.043*[#  11]+
          +0.043*[#   3]+0.043*[#  15]+
    |psi|^2 = 0.988
==== e(   2) =   -14.24254 eV ==== 
     psi = 0.127*[#   5]+0.127*[#   9]+0.127*[#   1]+0.127*[#  13]+0.078*[#   4]+
          +0.078*[#  16]+0.078*[#   8]+0.078*[#  12]+0.043*[#   3]+0.043*[#  15]+
          +0.043*[#   7]+0.043*[#  11]+
    |psi|^2 = 0.991
==== e(   3) =   -12.45494 eV ==== 
     psi = 0.125*[#   3]+0.125*[#   7]+0.125*[#  11]+0.125*[#  15]+0.092*[#   1]+
          +0.092*[#  13]+0.092*[#   5]+0.092*[#   9]+0.031*[#   8]+0.031*[#  12]+
          +0.030*[#   4]+0.031*[#  16]+
    |psi|^2 = 0.989
==== e(   4) =   -12.39447 eV ==== 
     psi = 0.125*[#   3]+0.125*[#   7]+0.125*[#  11]+0.125*[#  15]+0.092*[#   5]+
          +0.092*[#   9]+0.092*[#   1]+0.092*[#  13]+0.031*[#   4]+0.031*[#  16]+
          +0.030*[#   8]+0.030*[#  12]+
    |psi|^2 = 0.991
==== e(   5) =   -10.17035 eV ==== 
     psi = 0.143*[#   4]+0.143*[#   8]+0.143*[#  12]+0.143*[#  16]+0.083*[#   3]+
          +0.083*[#  15]+0.083*[#   7]+0.083*[#  11]+0.020*[#   5]+0.020*[#   9]+
          +0.020*[#   1]+0.020*[#  13]+
    |psi|^2 = 0.986
==== e(   6) =   -10.12710 eV ==== 
     psi = 0.144*[#   4]+0.144*[#   8]+0.144*[#  12]+0.144*[#  16]+0.083*[#   7]+
          +0.083*[#  11]+0.083*[#   3]+0.083*[#  15]+0.020*[#   1]+0.020*[#  13]+
          +0.020*[#   5]+0.020*[#   9]+
    |psi|^2 = 0.988
==== e(   7) =    -2.12259 eV ==== 
     psi = 0.251*[#   2]+0.251*[#  14]+0.247*[#   6]+0.247*[#  10]+
    |psi|^2 = 0.996
==== e(   8) =    -1.56163 eV ==== 
     psi = 0.252*[#   6]+0.252*[#  10]+0.246*[#   2]+0.246*[#  14]+
    |psi|^2 = 0.996
==== e(   9) =     0.54309 eV ==== 
     psi = 0.249*[#   2]+0.249*[#  14]+0.243*[#   6]+0.243*[#  10]+
    |psi|^2 = 0.984
==== e(  10) =     1.05822 eV ==== 
     psi = 0.249*[#   6]+0.249*[#  10]+0.244*[#   2]+0.244*[#  14]+
    |psi|^2 = 0.986
==== e(  11) =     9.74307 eV ==== 
     psi = 0.001*[#   2]+0.001*[#   6]+0.001*[#  10]+0.001*[#  14]+
    |psi|^2 = 0.009
==== e(  12) =    10.74859 eV ==== 
     psi = 0.012*[#   1]+0.012*[#  13]+0.012*[#   5]+0.012*[#   9]+0.003*[#   7]+
          +0.003*[#  11]+0.003*[#   3]+0.003*[#  15]+0.002*[#   4]+0.002*[#   8]+
          +0.002*[#  12]+0.002*[#  16]+
    |psi|^2 = 0.069

 k =   0.5833333333 -0.0481125224  0.0000000000
==== e(   1) =   -14.31592 eV ==== 
     psi = 0.126*[#   5]+0.126*[#   9]+0.126*[#   1]+0.126*[#  13]+0.107*[#   3]+
          +0.107*[#  15]+0.107*[#   7]+0.107*[#  11]+0.014*[#   4]+0.014*[#   8]+
          +0.014*[#  12]+0.014*[#  16]+
    |psi|^2 = 0.988
==== e(   2) =   -14.24258 eV ==== 
     psi = 0.127*[#   1]+0.127*[#  13]+0.127*[#   5]+0.127*[#   9]+0.107*[#   7]+
          +0.107*[#  11]+0.107*[#   3]+0.107*[#  15]+0.014*[#   4]+0.014*[#   8]+
          +0.014*[#  12]+0.014*[#  16]+
    |psi|^2 = 0.991
==== e(   3) =   -12.45480 eV ==== 
     psi = 0.092*[#   3]+0.092*[#  15]+0.092*[#   7]+0.092*[#  11]+0.092*[#   5]+
          +0.092*[#   9]+0.092*[#   1]+0.092*[#  13]+0.063*[#   4]+0.063*[#  16]+
          +0.063*[#   8]+0.063*[#  12]+
    |psi|^2 = 0.989
==== e(   4) =   -12.39421 eV ==== 
     psi = 0.093*[#   7]+0.093*[#  11]+0.092*[#   3]+0.092*[#   1]+0.092*[#  15]+
          +0.092*[#  13]+0.092*[#   5]+0.092*[#   9]+0.063*[#   4]+0.063*[#   8]+
          +0.063*[#  12]+0.063*[#  16]+
    |psi|^2 = 0.991
==== e(   5) =   -10.17056 eV ==== 
     psi = 0.165*[#   4]+0.165*[#   8]+0.165*[#  12]+0.165*[#  16]+0.061*[#   7]+
          +0.061*[#  11]+0.061*[#   3]+0.061*[#  15]+0.020*[#   1]+0.020*[#   5]+
          +0.020*[#   9]+0.020*[#  13]+
    |psi|^2 = 0.986
==== e(   6) =   -10.12725 eV ==== 
     psi = 0.165*[#   4]+0.165*[#   8]+0.165*[#  12]+0.165*[#  16]+0.062*[#   3]+
          +0.062*[#   7]+0.062*[#  11]+0.062*[#  15]+0.020*[#   1]+0.020*[#   5]+
          +0.020*[#   9]+0.020*[#  13]+
    |psi|^2 = 0.988
==== e(   7) =    -2.12272 eV ==== 
     psi = 0.250*[#   6]+0.250*[#  10]+0.248*[#   2]+0.248*[#  14]+
    |psi|^2 = 0.996
==== e(   8) =    -1.56187 eV ==== 
     psi = 0.251*[#   2]+0.251*[#  14]+0.247*[#   6]+0.247*[#  10]+
    |psi|^2 = 0.996
==== e(   9) =     0.54270 eV ==== 
     psi = 0.249*[#   6]+0.249*[#  10]+0.244*[#   2]+0.244*[#  14]+
    |psi|^2 = 0.984
==== e(  10) =     1.05922 eV ==== 
     psi = 0.248*[#   2]+0.248*[#  14]+0.245*[#   6]+0.245*[#  10]+
    |psi|^2 = 0.986
==== e(  11) =     9.74270 eV ==== 
     psi = 0.001*[#   2]+0.001*[#   6]+0.001*[#  10]+0.001*[#  14]+
    |psi|^2 = 0.009
==== e(  12) =    10.74759 eV ==== 
     psi = 0.012*[#   5]+0.012*[#   9]+0.012*[#   1]+0.012*[#  13]+0.004*[#   4]+
          +0.004*[#  16]+0.004*[#   8]+0.004*[#  12]+0.001*[#   3]+0.001*[#   7]+
          +0.001*[#  11]+0.001*[#  15]+
    |psi|^2 = 0.070

Lowdin Charges: 

     Atom #   1: total charge =   3.9571, s =  0.9179, p =  3.0392, 
                 spin up      =   1.9786, s =  0.4590, 
                 spin up      =   1.9786, p =  1.5196, pz=  0.4945, px=  0.5126, py=  0.5126, 
                 spin down    =   1.9786, s =  0.4590, 
                 spin down    =   1.9786, p =  1.5196, pz=  0.4945, px=  0.5126, py=  0.5126, 
                 polarization =  -0.0000, s = -0.0000, p = -0.0000, 
     Atom #   2: total charge =   3.9571, s =  0.9179, p =  3.0392, 
                 spin up      =   1.9786, s =  0.4590, 
                 spin up      =   1.9786, p =  1.5196, pz=  0.4945, px=  0.5126, py=  0.5126, 
                 spin down    =   1.9786, s =  0.4590, 
                 spin down    =   1.9786, p =  1.5196, pz=  0.4945, px=  0.5126, py=  0.5126, 
                 polarization =   0.0000, s =  0.0000, p =  0.0000, 
     Atom #   3: total charge =   3.9571, s =  0.9179, p =  3.0392, 
                 spin up      =   1.9786, s =  0.4590, 
                 spin up      =   1.9786, p =  1.5196, pz=  0.4945, px=  0.5126, py=  0.5126, 
                 spin down    =   1.9786, s =  0.4590, 
                 spin down    =   1.9786, p =  1.5196, pz=  0.4945, px=  0.5126, py=  0.5126, 
                 polarization =  -0.0000, s = -0.0000, p = -0.0000, 
     Atom #   4: total charge =   3.9571, s =  0.9179, p =  3.0392, 
                 spin up      =   1.9786, s =  0.4590, 
                 spin up      =   1.9786, p =  1.5196, pz=  0.4945, px=  0.5126, py=  0.5126, 
                 spin down    =   1.9786, s =  0.4590, 
                 spin down    =   1.9786, p =  1.5196, pz=  0.4945, px=  0.5126, py=  0.5126, 
                 polarization =   0.0000, s =  0.0000, p =  0.0000, 
     Spilling Parameter:   0.0107
