
     Program PWSCF v.5.1 starts on  1May2020 at  6:46:45 

     This program is part of the open-source Quantum ESPRESSO suite
     for quantum simulation of materials; please cite
         "P. Giannozzi et al., J. Phys.:Condens. Matter 21 395502 (2009);
          URL http://www.quantum-espresso.org", 
     in publications or presentations arising from this work. More details at
     http://www.quantum-espresso.org/quote

     Parallel version (MPI), running on     1 processors
     Waiting for input...
     Reading input from standard input

     Current dimensions of program PWSCF are:
     Max number of different atomic species (ntypx) = 10
     Max number of k-points (npk) =  40000
     Max angular momentum in pseudopotentials (lmaxx) =  3

     IMPORTANT: XC functional enforced from input :
     Exchange-correlation      = PBE ( 1  4  3  4 0)
     Any further DFT definition will be discarded
     Please, verify this is what you really want

               file C.pbe-rrkjus.UPF: wavefunction(s)  2S 2P renormalized

     Subspace diagonalization in iterative solution of the eigenvalue problem:
     a serial algorithm will be used


     G-vector sticks info
     --------------------
     sticks:   dense  smooth     PW     G-vecs:    dense   smooth      PW
     Sum         595     241     85                96043    24369    4587

     Generating pointlists ...
     new r_m :   0.2381 (alat units)  1.1104 (a.u.) for type    1

     Title: 
     graphene                                                                   


     bravais-lattice index     =           12
     lattice parameter (alat)  =       4.6627  a.u.
     unit-cell volume          =     711.6007 (a.u.)^3
     number of atoms/cell      =            4
     number of atomic types    =            1
     number of electrons       =        16.00
     number of Kohn-Sham states=           16
     kinetic-energy cutoff     =      40.0000  Ry
     charge density cutoff     =     400.0000  Ry
     convergence threshold     =      1.0E-10
     mixing beta               =       0.3000
     number of iterations used =            8  plain     mixing
     Exchange-correlation      = PBE ( 1  4  3  4 0)

     celldm(1)=   4.662710  celldm(2)=   1.000000  celldm(3)=   8.105698
     celldm(4)=  -0.500000  celldm(5)=   0.000000  celldm(6)=   0.000000

     crystal axes: (cart. coord. in units of alat)
               a(1) = (   1.000000   0.000000   0.000000 )  
               a(2) = (  -0.500000   0.866025   0.000000 )  
               a(3) = (   0.000000   0.000000   8.105698 )  

     reciprocal axes: (cart. coord. in units 2 pi/alat)
               b(1) = (  1.000000  0.577350 -0.000000 )  
               b(2) = (  0.000000  1.154701  0.000000 )  
               b(3) = (  0.000000 -0.000000  0.123370 )  


     PseudoPot. # 1 for C  read from file:
     ../pseudo/C.pbe-rrkjus.UPF
     MD5 check sum: 00fb224312de0c5b6853bd333518df6f
     Pseudo is Ultrasoft, Zval =  4.0
     Generated by new atomic code, or converted to UPF format
     Using radial grid of  627 points,  4 beta functions with: 
                l(1) =   0
                l(2) =   0
                l(3) =   1
                l(4) =   1
     Q(r) pseudized with 0 coefficients 


     atomic species   valence    mass     pseudopotential
        C              4.00    12.01100     C ( 1.00)

     Starting magnetic structure 
     atomic species   magnetization
        C           -0.500

     No symmetry found
          (note:  3 additional sym.ops. were found but ignored
           their fractional translations are incommensurate with FFT grid)

                                    s                        frac. trans.

      isym =  1     identity                                     

 cryst.   s( 1) = (     1          0          0      )
                  (     0          1          0      )
                  (     0          0          1      )

 cart.    s( 1) = (  1.0000000  0.0000000  0.0000000 )
                  (  0.0000000  1.0000000  0.0000000 )
                  (  0.0000000  0.0000000  1.0000000 )


     point group C_1 (1)    
     there are  1 classes
     the character table:

       E    
A      1.00

     the symmetry operations in each class:
     E        1

   Cartesian axes

     site n.     atom                  positions (alat units)
         1           C   tau(   1) = (   0.0000000   0.0000000   2.0264246  )
         2           C   tau(   2) = (   0.0000000   0.5773284   2.0264246  )
         3           C   tau(   3) = (   0.9726838   0.0000000   3.4449218  )
         4           C   tau(   4) = (   0.9726838   0.5773284   3.4449218  )

   Crystallographic axes

     site n.     atom                  positions (cryst. coord.)
         1           C   tau(   1) = (  0.0000000  0.0000000  0.2500000  )
         2           C   tau(   2) = (  0.3333207  0.6666414  0.2500000  )
         3           C   tau(   3) = (  0.9726838  0.0000000  0.4250000  )
         4           C   tau(   4) = (  1.3060045  0.6666414  0.4250000  )

     number of k points=   148  Marzari-Vanderbilt smearing, width (Ry)=  0.0001
                       cart. coord. in units 2pi/alat
        k(    1) = (   0.0000000   0.0000000   0.0000000), wk =   0.0069444
        k(    2) = (   0.0000000   0.0962250   0.0000000), wk =   0.0138889
        k(    3) = (   0.0000000   0.1924501   0.0000000), wk =   0.0138889
        k(    4) = (   0.0000000   0.2886751   0.0000000), wk =   0.0138889
        k(    5) = (   0.0000000   0.3849002   0.0000000), wk =   0.0138889
        k(    6) = (   0.0000000   0.4811252   0.0000000), wk =   0.0138889
        k(    7) = (   0.0000000  -0.5773503   0.0000000), wk =   0.0069444
        k(    8) = (   0.0833333   0.1443376   0.0000000), wk =   0.0138889
        k(    9) = (   0.0833333   0.2405626   0.0000000), wk =   0.0138889
        k(   10) = (   0.0833333   0.3367877   0.0000000), wk =   0.0138889
        k(   11) = (   0.0833333   0.4330127   0.0000000), wk =   0.0138889
        k(   12) = (   0.0833333   0.5292377   0.0000000), wk =   0.0138889
        k(   13) = (   0.1666667   0.2886751   0.0000000), wk =   0.0138889
        k(   14) = (   0.1666667   0.3849002   0.0000000), wk =   0.0138889
        k(   15) = (   0.1666667   0.4811252   0.0000000), wk =   0.0138889
        k(   16) = (   0.1666667   0.5773503   0.0000000), wk =   0.0138889
        k(   17) = (   0.2500000   0.4330127   0.0000000), wk =   0.0138889
        k(   18) = (   0.2500000   0.5292377   0.0000000), wk =   0.0138889
        k(   19) = (   0.3333333   0.5773503   0.0000000), wk =   0.0138889
        k(   20) = (  -0.0833333   0.0481125   0.0000000), wk =   0.0138889
        k(   21) = (   0.0833333   0.0481125   0.0000000), wk =   0.0138889
        k(   22) = (  -0.1666667   0.0962250   0.0000000), wk =   0.0138889
        k(   23) = (   0.1666667   0.0962250   0.0000000), wk =   0.0138889
        k(   24) = (  -0.2500000   0.1443376   0.0000000), wk =   0.0138889
        k(   25) = (   0.2500000   0.1443376   0.0000000), wk =   0.0138889
        k(   26) = (  -0.3333333   0.1924501   0.0000000), wk =   0.0138889
        k(   27) = (   0.3333333   0.1924501   0.0000000), wk =   0.0138889
        k(   28) = (  -0.4166667   0.2405626   0.0000000), wk =   0.0138889
        k(   29) = (   0.4166667   0.2405626   0.0000000), wk =   0.0138889
        k(   30) = (   0.5000000  -0.2886751   0.0000000), wk =   0.0069444
        k(   31) = (  -0.5000000  -0.2886751   0.0000000), wk =   0.0069444
        k(   32) = (  -0.0833333   0.1443376   0.0000000), wk =   0.0138889
        k(   33) = (   0.1666667  -0.0000000   0.0000000), wk =   0.0138889
        k(   34) = (  -0.0833333   0.2405626   0.0000000), wk =   0.0138889
        k(   35) = (  -0.1666667   0.1924501   0.0000000), wk =   0.0138889
        k(   36) = (   0.2500000   0.0481125   0.0000000), wk =   0.0138889
        k(   37) = (  -0.1666667  -0.1924501   0.0000000), wk =   0.0138889
        k(   38) = (   0.2500000  -0.0481125   0.0000000), wk =   0.0138889
        k(   39) = (  -0.0833333   0.3367877   0.0000000), wk =   0.0138889
        k(   40) = (  -0.2500000   0.2405626   0.0000000), wk =   0.0138889
        k(   41) = (   0.3333333   0.0962250   0.0000000), wk =   0.0138889
        k(   42) = (  -0.2500000  -0.2405626   0.0000000), wk =   0.0138889
        k(   43) = (   0.3333333  -0.0962250   0.0000000), wk =   0.0138889
        k(   44) = (  -0.0833333   0.4330127   0.0000000), wk =   0.0138889
        k(   45) = (  -0.3333333   0.2886751   0.0000000), wk =   0.0138889
        k(   46) = (   0.4166667   0.1443376   0.0000000), wk =   0.0138889
        k(   47) = (  -0.3333333  -0.2886751   0.0000000), wk =   0.0138889
        k(   48) = (   0.4166667  -0.1443376   0.0000000), wk =   0.0138889
        k(   49) = (  -0.0833333   0.5292377   0.0000000), wk =   0.0138889
        k(   50) = (  -0.4166667   0.3367877   0.0000000), wk =   0.0138889
        k(   51) = (   0.5000000   0.1924501   0.0000000), wk =   0.0138889
        k(   52) = (  -0.4166667  -0.3367877   0.0000000), wk =   0.0138889
        k(   53) = (   0.5000000  -0.1924501   0.0000000), wk =   0.0138889
        k(   54) = (  -0.1666667   0.2886751   0.0000000), wk =   0.0138889
        k(   55) = (   0.3333333  -0.0000000   0.0000000), wk =   0.0138889
        k(   56) = (  -0.1666667   0.3849002   0.0000000), wk =   0.0138889
        k(   57) = (  -0.2500000   0.3367877   0.0000000), wk =   0.0138889
        k(   58) = (   0.4166667   0.0481125   0.0000000), wk =   0.0138889
        k(   59) = (  -0.2500000  -0.3367877   0.0000000), wk =   0.0138889
        k(   60) = (   0.4166667  -0.0481125   0.0000000), wk =   0.0138889
        k(   61) = (  -0.1666667   0.4811252   0.0000000), wk =   0.0138889
        k(   62) = (  -0.3333333   0.3849002   0.0000000), wk =   0.0138889
        k(   63) = (   0.5000000   0.0962250   0.0000000), wk =   0.0138889
        k(   64) = (  -0.3333333  -0.3849002   0.0000000), wk =   0.0138889
        k(   65) = (   0.5000000  -0.0962250   0.0000000), wk =   0.0138889
        k(   66) = (  -0.4166667   0.4330127   0.0000000), wk =   0.0138889
        k(   67) = (   0.5833333   0.1443376   0.0000000), wk =   0.0138889
        k(   68) = (  -0.2500000   0.4330127   0.0000000), wk =   0.0138889
        k(   69) = (   0.5000000   0.0000000   0.0000000), wk =   0.0138889
        k(   70) = (  -0.2500000   0.5292377   0.0000000), wk =   0.0138889
        k(   71) = (  -0.3333333   0.4811252   0.0000000), wk =   0.0138889
        k(   72) = (   0.5833333   0.0481125   0.0000000), wk =   0.0138889
        k(   73) = (  -0.3333333  -0.4811252   0.0000000), wk =   0.0138889
        k(   74) = (   0.5833333  -0.0481125   0.0000000), wk =   0.0138889
        k(   75) = (   0.0000000   0.0000000   0.0000000), wk =   0.0069444
        k(   76) = (   0.0000000   0.0962250   0.0000000), wk =   0.0138889
        k(   77) = (   0.0000000   0.1924501   0.0000000), wk =   0.0138889
        k(   78) = (   0.0000000   0.2886751   0.0000000), wk =   0.0138889
        k(   79) = (   0.0000000   0.3849002   0.0000000), wk =   0.0138889
        k(   80) = (   0.0000000   0.4811252   0.0000000), wk =   0.0138889
        k(   81) = (   0.0000000  -0.5773503   0.0000000), wk =   0.0069444
        k(   82) = (   0.0833333   0.1443376   0.0000000), wk =   0.0138889
        k(   83) = (   0.0833333   0.2405626   0.0000000), wk =   0.0138889
        k(   84) = (   0.0833333   0.3367877   0.0000000), wk =   0.0138889
        k(   85) = (   0.0833333   0.4330127   0.0000000), wk =   0.0138889
        k(   86) = (   0.0833333   0.5292377   0.0000000), wk =   0.0138889
        k(   87) = (   0.1666667   0.2886751   0.0000000), wk =   0.0138889
        k(   88) = (   0.1666667   0.3849002   0.0000000), wk =   0.0138889
        k(   89) = (   0.1666667   0.4811252   0.0000000), wk =   0.0138889
        k(   90) = (   0.1666667   0.5773503   0.0000000), wk =   0.0138889
        k(   91) = (   0.2500000   0.4330127   0.0000000), wk =   0.0138889
        k(   92) = (   0.2500000   0.5292377   0.0000000), wk =   0.0138889
        k(   93) = (   0.3333333   0.5773503   0.0000000), wk =   0.0138889
        k(   94) = (  -0.0833333   0.0481125   0.0000000), wk =   0.0138889
        k(   95) = (   0.0833333   0.0481125   0.0000000), wk =   0.0138889
        k(   96) = (  -0.1666667   0.0962250   0.0000000), wk =   0.0138889
        k(   97) = (   0.1666667   0.0962250   0.0000000), wk =   0.0138889
        k(   98) = (  -0.2500000   0.1443376   0.0000000), wk =   0.0138889
        k(   99) = (   0.2500000   0.1443376   0.0000000), wk =   0.0138889
        k(  100) = (  -0.3333333   0.1924501   0.0000000), wk =   0.0138889
        k(  101) = (   0.3333333   0.1924501   0.0000000), wk =   0.0138889
        k(  102) = (  -0.4166667   0.2405626   0.0000000), wk =   0.0138889
        k(  103) = (   0.4166667   0.2405626   0.0000000), wk =   0.0138889
        k(  104) = (   0.5000000  -0.2886751   0.0000000), wk =   0.0069444
        k(  105) = (  -0.5000000  -0.2886751   0.0000000), wk =   0.0069444
        k(  106) = (  -0.0833333   0.1443376   0.0000000), wk =   0.0138889
        k(  107) = (   0.1666667  -0.0000000   0.0000000), wk =   0.0138889
        k(  108) = (  -0.0833333   0.2405626   0.0000000), wk =   0.0138889
        k(  109) = (  -0.1666667   0.1924501   0.0000000), wk =   0.0138889
        k(  110) = (   0.2500000   0.0481125   0.0000000), wk =   0.0138889
        k(  111) = (  -0.1666667  -0.1924501   0.0000000), wk =   0.0138889
        k(  112) = (   0.2500000  -0.0481125   0.0000000), wk =   0.0138889
        k(  113) = (  -0.0833333   0.3367877   0.0000000), wk =   0.0138889
        k(  114) = (  -0.2500000   0.2405626   0.0000000), wk =   0.0138889
        k(  115) = (   0.3333333   0.0962250   0.0000000), wk =   0.0138889
        k(  116) = (  -0.2500000  -0.2405626   0.0000000), wk =   0.0138889
        k(  117) = (   0.3333333  -0.0962250   0.0000000), wk =   0.0138889
        k(  118) = (  -0.0833333   0.4330127   0.0000000), wk =   0.0138889
        k(  119) = (  -0.3333333   0.2886751   0.0000000), wk =   0.0138889
        k(  120) = (   0.4166667   0.1443376   0.0000000), wk =   0.0138889
        k(  121) = (  -0.3333333  -0.2886751   0.0000000), wk =   0.0138889
        k(  122) = (   0.4166667  -0.1443376   0.0000000), wk =   0.0138889
        k(  123) = (  -0.0833333   0.5292377   0.0000000), wk =   0.0138889
        k(  124) = (  -0.4166667   0.3367877   0.0000000), wk =   0.0138889
        k(  125) = (   0.5000000   0.1924501   0.0000000), wk =   0.0138889
        k(  126) = (  -0.4166667  -0.3367877   0.0000000), wk =   0.0138889
        k(  127) = (   0.5000000  -0.1924501   0.0000000), wk =   0.0138889
        k(  128) = (  -0.1666667   0.2886751   0.0000000), wk =   0.0138889
        k(  129) = (   0.3333333  -0.0000000   0.0000000), wk =   0.0138889
        k(  130) = (  -0.1666667   0.3849002   0.0000000), wk =   0.0138889
        k(  131) = (  -0.2500000   0.3367877   0.0000000), wk =   0.0138889
        k(  132) = (   0.4166667   0.0481125   0.0000000), wk =   0.0138889
        k(  133) = (  -0.2500000  -0.3367877   0.0000000), wk =   0.0138889
        k(  134) = (   0.4166667  -0.0481125   0.0000000), wk =   0.0138889
        k(  135) = (  -0.1666667   0.4811252   0.0000000), wk =   0.0138889
        k(  136) = (  -0.3333333   0.3849002   0.0000000), wk =   0.0138889
        k(  137) = (   0.5000000   0.0962250   0.0000000), wk =   0.0138889
        k(  138) = (  -0.3333333  -0.3849002   0.0000000), wk =   0.0138889
        k(  139) = (   0.5000000  -0.0962250   0.0000000), wk =   0.0138889
        k(  140) = (  -0.4166667   0.4330127   0.0000000), wk =   0.0138889
        k(  141) = (   0.5833333   0.1443376   0.0000000), wk =   0.0138889
        k(  142) = (  -0.2500000   0.4330127   0.0000000), wk =   0.0138889
        k(  143) = (   0.5000000   0.0000000   0.0000000), wk =   0.0138889
        k(  144) = (  -0.2500000   0.5292377   0.0000000), wk =   0.0138889
        k(  145) = (  -0.3333333   0.4811252   0.0000000), wk =   0.0138889
        k(  146) = (   0.5833333   0.0481125   0.0000000), wk =   0.0138889
        k(  147) = (  -0.3333333  -0.4811252   0.0000000), wk =   0.0138889
        k(  148) = (   0.5833333  -0.0481125   0.0000000), wk =   0.0138889

                       cryst. coord.
        k(    1) = (   0.0000000   0.0000000   0.0000000), wk =   0.0069444
        k(    2) = (   0.0000000   0.0833333   0.0000000), wk =   0.0138889
        k(    3) = (   0.0000000   0.1666667   0.0000000), wk =   0.0138889
        k(    4) = (   0.0000000   0.2500000   0.0000000), wk =   0.0138889
        k(    5) = (   0.0000000   0.3333333   0.0000000), wk =   0.0138889
        k(    6) = (   0.0000000   0.4166667   0.0000000), wk =   0.0138889
        k(    7) = (   0.0000000  -0.5000000   0.0000000), wk =   0.0069444
        k(    8) = (   0.0833333   0.0833333   0.0000000), wk =   0.0138889
        k(    9) = (   0.0833333   0.1666667   0.0000000), wk =   0.0138889
        k(   10) = (   0.0833333   0.2500000   0.0000000), wk =   0.0138889
        k(   11) = (   0.0833333   0.3333333   0.0000000), wk =   0.0138889
        k(   12) = (   0.0833333   0.4166667   0.0000000), wk =   0.0138889
        k(   13) = (   0.1666667   0.1666667   0.0000000), wk =   0.0138889
        k(   14) = (   0.1666667   0.2500000   0.0000000), wk =   0.0138889
        k(   15) = (   0.1666667   0.3333333   0.0000000), wk =   0.0138889
        k(   16) = (   0.1666667   0.4166667   0.0000000), wk =   0.0138889
        k(   17) = (   0.2500000   0.2500000   0.0000000), wk =   0.0138889
        k(   18) = (   0.2500000   0.3333333   0.0000000), wk =   0.0138889
        k(   19) = (   0.3333333   0.3333333   0.0000000), wk =   0.0138889
        k(   20) = (  -0.0833333   0.0833333   0.0000000), wk =   0.0138889
        k(   21) = (   0.0833333   0.0000000   0.0000000), wk =   0.0138889
        k(   22) = (  -0.1666667   0.1666667   0.0000000), wk =   0.0138889
        k(   23) = (   0.1666667   0.0000000   0.0000000), wk =   0.0138889
        k(   24) = (  -0.2500000   0.2500000   0.0000000), wk =   0.0138889
        k(   25) = (   0.2500000   0.0000000   0.0000000), wk =   0.0138889
        k(   26) = (  -0.3333333   0.3333333   0.0000000), wk =   0.0138889
        k(   27) = (   0.3333333   0.0000000   0.0000000), wk =   0.0138889
        k(   28) = (  -0.4166667   0.4166667   0.0000000), wk =   0.0138889
        k(   29) = (   0.4166667   0.0000000   0.0000000), wk =   0.0138889
        k(   30) = (   0.5000000  -0.5000000   0.0000000), wk =   0.0069444
        k(   31) = (  -0.5000000   0.0000000   0.0000000), wk =   0.0069444
        k(   32) = (  -0.0833333   0.1666667   0.0000000), wk =   0.0138889
        k(   33) = (   0.1666667  -0.0833333   0.0000000), wk =   0.0138889
        k(   34) = (  -0.0833333   0.2500000   0.0000000), wk =   0.0138889
        k(   35) = (  -0.1666667   0.2500000   0.0000000), wk =   0.0138889
        k(   36) = (   0.2500000  -0.0833333   0.0000000), wk =   0.0138889
        k(   37) = (  -0.1666667  -0.0833333   0.0000000), wk =   0.0138889
        k(   38) = (   0.2500000  -0.1666667   0.0000000), wk =   0.0138889
        k(   39) = (  -0.0833333   0.3333333   0.0000000), wk =   0.0138889
        k(   40) = (  -0.2500000   0.3333333   0.0000000), wk =   0.0138889
        k(   41) = (   0.3333333  -0.0833333   0.0000000), wk =   0.0138889
        k(   42) = (  -0.2500000  -0.0833333   0.0000000), wk =   0.0138889
        k(   43) = (   0.3333333  -0.2500000   0.0000000), wk =   0.0138889
        k(   44) = (  -0.0833333   0.4166667   0.0000000), wk =   0.0138889
        k(   45) = (  -0.3333333   0.4166667   0.0000000), wk =   0.0138889
        k(   46) = (   0.4166667  -0.0833333   0.0000000), wk =   0.0138889
        k(   47) = (  -0.3333333  -0.0833333   0.0000000), wk =   0.0138889
        k(   48) = (   0.4166667  -0.3333333   0.0000000), wk =   0.0138889
        k(   49) = (  -0.0833333   0.5000000   0.0000000), wk =   0.0138889
        k(   50) = (  -0.4166667   0.5000000   0.0000000), wk =   0.0138889
        k(   51) = (   0.5000000  -0.0833333   0.0000000), wk =   0.0138889
        k(   52) = (  -0.4166667  -0.0833333   0.0000000), wk =   0.0138889
        k(   53) = (   0.5000000  -0.4166667   0.0000000), wk =   0.0138889
        k(   54) = (  -0.1666667   0.3333333   0.0000000), wk =   0.0138889
        k(   55) = (   0.3333333  -0.1666667   0.0000000), wk =   0.0138889
        k(   56) = (  -0.1666667   0.4166667   0.0000000), wk =   0.0138889
        k(   57) = (  -0.2500000   0.4166667   0.0000000), wk =   0.0138889
        k(   58) = (   0.4166667  -0.1666667   0.0000000), wk =   0.0138889
        k(   59) = (  -0.2500000  -0.1666667   0.0000000), wk =   0.0138889
        k(   60) = (   0.4166667  -0.2500000   0.0000000), wk =   0.0138889
        k(   61) = (  -0.1666667   0.5000000   0.0000000), wk =   0.0138889
        k(   62) = (  -0.3333333   0.5000000   0.0000000), wk =   0.0138889
        k(   63) = (   0.5000000  -0.1666667   0.0000000), wk =   0.0138889
        k(   64) = (  -0.3333333  -0.1666667   0.0000000), wk =   0.0138889
        k(   65) = (   0.5000000  -0.3333333   0.0000000), wk =   0.0138889
        k(   66) = (  -0.4166667   0.5833333   0.0000000), wk =   0.0138889
        k(   67) = (   0.5833333  -0.1666667   0.0000000), wk =   0.0138889
        k(   68) = (  -0.2500000   0.5000000   0.0000000), wk =   0.0138889
        k(   69) = (   0.5000000  -0.2500000   0.0000000), wk =   0.0138889
        k(   70) = (  -0.2500000   0.5833333   0.0000000), wk =   0.0138889
        k(   71) = (  -0.3333333   0.5833333   0.0000000), wk =   0.0138889
        k(   72) = (   0.5833333  -0.2500000   0.0000000), wk =   0.0138889
        k(   73) = (  -0.3333333  -0.2500000   0.0000000), wk =   0.0138889
        k(   74) = (   0.5833333  -0.3333333   0.0000000), wk =   0.0138889
        k(   75) = (   0.0000000   0.0000000   0.0000000), wk =   0.0069444
        k(   76) = (   0.0000000   0.0833333   0.0000000), wk =   0.0138889
        k(   77) = (   0.0000000   0.1666667   0.0000000), wk =   0.0138889
        k(   78) = (   0.0000000   0.2500000   0.0000000), wk =   0.0138889
        k(   79) = (   0.0000000   0.3333333   0.0000000), wk =   0.0138889
        k(   80) = (   0.0000000   0.4166667   0.0000000), wk =   0.0138889
        k(   81) = (   0.0000000  -0.5000000   0.0000000), wk =   0.0069444
        k(   82) = (   0.0833333   0.0833333   0.0000000), wk =   0.0138889
        k(   83) = (   0.0833333   0.1666667   0.0000000), wk =   0.0138889
        k(   84) = (   0.0833333   0.2500000   0.0000000), wk =   0.0138889
        k(   85) = (   0.0833333   0.3333333   0.0000000), wk =   0.0138889
        k(   86) = (   0.0833333   0.4166667   0.0000000), wk =   0.0138889
        k(   87) = (   0.1666667   0.1666667   0.0000000), wk =   0.0138889
        k(   88) = (   0.1666667   0.2500000   0.0000000), wk =   0.0138889
        k(   89) = (   0.1666667   0.3333333   0.0000000), wk =   0.0138889
        k(   90) = (   0.1666667   0.4166667   0.0000000), wk =   0.0138889
        k(   91) = (   0.2500000   0.2500000   0.0000000), wk =   0.0138889
        k(   92) = (   0.2500000   0.3333333   0.0000000), wk =   0.0138889
        k(   93) = (   0.3333333   0.3333333   0.0000000), wk =   0.0138889
        k(   94) = (  -0.0833333   0.0833333   0.0000000), wk =   0.0138889
        k(   95) = (   0.0833333   0.0000000   0.0000000), wk =   0.0138889
        k(   96) = (  -0.1666667   0.1666667   0.0000000), wk =   0.0138889
        k(   97) = (   0.1666667   0.0000000   0.0000000), wk =   0.0138889
        k(   98) = (  -0.2500000   0.2500000   0.0000000), wk =   0.0138889
        k(   99) = (   0.2500000   0.0000000   0.0000000), wk =   0.0138889
        k(  100) = (  -0.3333333   0.3333333   0.0000000), wk =   0.0138889
        k(  101) = (   0.3333333   0.0000000   0.0000000), wk =   0.0138889
        k(  102) = (  -0.4166667   0.4166667   0.0000000), wk =   0.0138889
        k(  103) = (   0.4166667   0.0000000   0.0000000), wk =   0.0138889
        k(  104) = (   0.5000000  -0.5000000   0.0000000), wk =   0.0069444
        k(  105) = (  -0.5000000   0.0000000   0.0000000), wk =   0.0069444
        k(  106) = (  -0.0833333   0.1666667   0.0000000), wk =   0.0138889
        k(  107) = (   0.1666667  -0.0833333   0.0000000), wk =   0.0138889
        k(  108) = (  -0.0833333   0.2500000   0.0000000), wk =   0.0138889
        k(  109) = (  -0.1666667   0.2500000   0.0000000), wk =   0.0138889
        k(  110) = (   0.2500000  -0.0833333   0.0000000), wk =   0.0138889
        k(  111) = (  -0.1666667  -0.0833333   0.0000000), wk =   0.0138889
        k(  112) = (   0.2500000  -0.1666667   0.0000000), wk =   0.0138889
        k(  113) = (  -0.0833333   0.3333333   0.0000000), wk =   0.0138889
        k(  114) = (  -0.2500000   0.3333333   0.0000000), wk =   0.0138889
        k(  115) = (   0.3333333  -0.0833333   0.0000000), wk =   0.0138889
        k(  116) = (  -0.2500000  -0.0833333   0.0000000), wk =   0.0138889
        k(  117) = (   0.3333333  -0.2500000   0.0000000), wk =   0.0138889
        k(  118) = (  -0.0833333   0.4166667   0.0000000), wk =   0.0138889
        k(  119) = (  -0.3333333   0.4166667   0.0000000), wk =   0.0138889
        k(  120) = (   0.4166667  -0.0833333   0.0000000), wk =   0.0138889
        k(  121) = (  -0.3333333  -0.0833333   0.0000000), wk =   0.0138889
        k(  122) = (   0.4166667  -0.3333333   0.0000000), wk =   0.0138889
        k(  123) = (  -0.0833333   0.5000000   0.0000000), wk =   0.0138889
        k(  124) = (  -0.4166667   0.5000000   0.0000000), wk =   0.0138889
        k(  125) = (   0.5000000  -0.0833333   0.0000000), wk =   0.0138889
        k(  126) = (  -0.4166667  -0.0833333   0.0000000), wk =   0.0138889
        k(  127) = (   0.5000000  -0.4166667   0.0000000), wk =   0.0138889
        k(  128) = (  -0.1666667   0.3333333   0.0000000), wk =   0.0138889
        k(  129) = (   0.3333333  -0.1666667   0.0000000), wk =   0.0138889
        k(  130) = (  -0.1666667   0.4166667   0.0000000), wk =   0.0138889
        k(  131) = (  -0.2500000   0.4166667   0.0000000), wk =   0.0138889
        k(  132) = (   0.4166667  -0.1666667   0.0000000), wk =   0.0138889
        k(  133) = (  -0.2500000  -0.1666667   0.0000000), wk =   0.0138889
        k(  134) = (   0.4166667  -0.2500000   0.0000000), wk =   0.0138889
        k(  135) = (  -0.1666667   0.5000000   0.0000000), wk =   0.0138889
        k(  136) = (  -0.3333333   0.5000000   0.0000000), wk =   0.0138889
        k(  137) = (   0.5000000  -0.1666667   0.0000000), wk =   0.0138889
        k(  138) = (  -0.3333333  -0.1666667   0.0000000), wk =   0.0138889
        k(  139) = (   0.5000000  -0.3333333   0.0000000), wk =   0.0138889
        k(  140) = (  -0.4166667   0.5833333   0.0000000), wk =   0.0138889
        k(  141) = (   0.5833333  -0.1666667   0.0000000), wk =   0.0138889
        k(  142) = (  -0.2500000   0.5000000   0.0000000), wk =   0.0138889
        k(  143) = (   0.5000000  -0.2500000   0.0000000), wk =   0.0138889
        k(  144) = (  -0.2500000   0.5833333   0.0000000), wk =   0.0138889
        k(  145) = (  -0.3333333   0.5833333   0.0000000), wk =   0.0138889
        k(  146) = (   0.5833333  -0.2500000   0.0000000), wk =   0.0138889
        k(  147) = (  -0.3333333  -0.2500000   0.0000000), wk =   0.0138889
        k(  148) = (   0.5833333  -0.3333333   0.0000000), wk =   0.0138889

     Dense  grid:    96043 G-vectors     FFT dimensions: (  30,  30, 243)

     Smooth grid:    24369 G-vectors     FFT dimensions: (  20,  20, 160)

     Largest allocated arrays     est. size (Mb)     dimensions
        Kohn-Sham Wavefunctions         0.75 Mb     (    3054,   16)
        NL pseudopotentials             1.49 Mb     (    3054,   32)
        Each V/rho on FFT grid          6.67 Mb     (  218700,   2)
        Each G-vector array             0.73 Mb     (   96043)
        G-vector shells                 0.04 Mb     (    4763)
     Largest temporary arrays     est. size (Mb)     dimensions
        Auxiliary wavefunctions         2.98 Mb     (    3054,   64)
        Each subspace H/S matrix        0.06 Mb     (      64,   64)
        Each <psi_i|beta_j> matrix      0.01 Mb     (      32,   16)
        Arrays for rho mixing          26.70 Mb     (  218700,    8)

     Initial potential from superposition of free atoms

     starting charge   15.99979, renormalised to   16.00000

     negative rho (up, down):  2.625E-06 7.875E-06
     Starting wfc are   16 randomized atomic wfcs

     total cpu time spent up to now is        9.0 secs

     per-process dynamical memory:   163.4 Mb

     Self-consistent Calculation

     iteration #  1     ecut=    40.00 Ry     beta=0.30
     Davidson diagonalization with overlap
     ethr =  1.00E-02,  avg # of iterations =  6.0

     negative rho (up, down):  1.424E-06 4.786E-06

     Magnetic moment per site:
     atom:    1    charge:    1.6477    magn:   -0.5743    constr:    0.0000
     atom:    2    charge:    1.6477    magn:   -0.5743    constr:    0.0000
     atom:    3    charge:    1.6473    magn:   -0.5741    constr:    0.0000
     atom:    4    charge:    1.6473    magn:   -0.5741    constr:    0.0000

     total cpu time spent up to now is       50.1 secs

 ------ SPIN UP ------------


          k = 0.0000 0.0000 0.0000     band energies (ev):

   -21.7364 -21.6501  -9.3792  -8.6952  -5.8625  -5.8607  -5.8533  -5.8516
     3.2471   3.8209   4.6497   5.7183   5.8615   5.8636   5.8860   5.8883

     occupation numbers 
     1.0000   1.0000   1.0000   1.0000   1.0000   1.0000   1.0000   1.0000
     0.0000   0.0000   0.0000   0.0000   0.0000   0.0000   0.0000   0.0000

          k = 0.0000 0.0962 0.0000     band energies (ev):

   -21.5762 -21.4908  -9.1850  -8.5059  -6.4684  -6.4564  -6.1779  -6.1682
     3.4626   4.0420   5.1240   5.9501   5.9753   6.1208   6.5259   6.5526

     occupation numbers 
     1.0000   1.0000   1.0000   1.0000   1.0000   1.0000   1.0000   1.0000
     0.0000   0.0000   0.0000   0.0000   0.0000   0.0000   0.0000   0.0000

          k = 0.0000 0.1925 0.0000     band energies (ev):

   -21.0975 -21.0148  -8.6087  -8.0106  -7.9915  -7.9439  -6.9285  -6.9175
     4.1094   4.7063   5.8360   6.0264   6.0912   6.7251   7.2390   7.4546

     occupation numbers 
     1.0000   1.0000   1.0000   1.0000   1.0000   1.0000   1.0000   1.0000
     0.0000   0.0000   0.0000   0.0000   0.0000   0.0000   0.0000   0.0000

          k = 0.0000 0.2887 0.0000     band energies (ev):

   -20.3064 -20.2280 -10.0098  -9.9816  -7.7714  -7.7588  -7.6692  -7.0308
     5.1434   5.2205   5.4831   5.7790   5.8285   5.9420   6.8610   7.8086

     occupation numbers 
     1.0000   1.0000   1.0000   1.0000   1.0000   1.0000   1.0000   1.0000
     0.0000   0.0000   0.0000   0.0000   0.0000   0.0000   0.0000   0.0000

          k = 0.0000 0.3849 0.0000     band energies (ev):

   -19.2155 -19.1430 -12.1264 -12.0890  -8.4790  -8.4656  -6.4181  -5.8209
     2.9758   3.3881   5.4870   5.6078   6.7246   7.3622   8.2279   9.0742

     occupation numbers 
     1.0000   1.0000   1.0000   1.0000   1.0000   1.0000   1.0000   1.0000
     0.0000   0.0000   0.0000   0.0000   0.0000   0.0000   0.0000   0.0000

          k = 0.0000 0.4811 0.0000     band energies (ev):

   -17.8575 -17.7915 -14.1539 -14.1075  -8.9375  -8.9233  -5.0183  -4.4847
     0.8912   1.4136   5.3029   5.4198   8.5886   9.3064  10.2858  11.3345

     occupation numbers 
     1.0000   1.0000   1.0000   1.0000   1.0000   1.0000   1.0000   1.0000
     0.0000   0.0000   0.0000   0.0000   0.0000   0.0000   0.0000   0.0000

          k = 0.0000-0.5774 0.0000     band energies (ev):

   -16.6401 -16.5783 -15.6019 -15.5508  -9.0946  -9.0806  -4.1914  -3.7164
    -0.1782   0.4187   5.2362   5.3517  10.6984  10.8145  11.5992  11.7695

     occupation numbers 
     1.0000   1.0000   1.0000   1.0000   1.0000   1.0000   1.0000   1.0000
     0.0000   0.0000   0.0000   0.0000   0.0000   0.0000   0.0000   0.0000

          k = 0.0833 0.1443 0.0000     band energies (ev):

   -21.2567 -21.1732  -8.7996  -8.1301  -7.4438  -7.4276  -6.8117  -6.7997
     3.8923   4.4830   5.3409   6.2267   6.2911   6.4675   6.5545   7.4105

     occupation numbers 
     1.0000   1.0000   1.0000   1.0000   1.0000   1.0000   1.0000   1.0000
     0.0000   0.0000   0.0000   0.0000   0.0000   0.0000   0.0000   0.0000

          k = 0.0833 0.2406 0.0000     band energies (ev):

   -20.6218 -20.5418  -9.0684  -9.0449  -8.0407  -7.7565  -7.7421  -7.3912
     4.7539   5.3619   6.0270   6.2899   6.4419   6.5415   6.7748   7.4193

     occupation numbers 
     1.0000   1.0000   1.0000   1.0000   1.0000   1.0000   1.0000   1.0000
     0.0000   0.0000   0.0000   0.0000   0.0000   0.0000   0.0000   0.0000

          k = 0.0833 0.3368 0.0000     band energies (ev):

   -19.6807 -19.6058 -11.0504 -11.0180  -8.6085  -8.5920  -6.9389  -6.3226
     3.9591   4.3017   5.9585   6.3746   6.4011   6.7200   7.5649   8.4335

     occupation numbers 
     1.0000   1.0000   1.0000   1.0000   1.0000   1.0000   1.0000   1.0000
     0.0000   0.0000   0.0000   0.0000   0.0000   0.0000   0.0000   0.0000

          k = 0.0833 0.4330 0.0000     band energies (ev):

   -18.4531 -18.3845 -13.0935 -13.0520  -9.2229  -9.2056  -5.5795  -5.0142
     1.8098   2.2565   6.0569   6.1798   7.7647   8.4608   9.3002  10.0033

     occupation numbers 
     1.0000   1.0000   1.0000   1.0000   1.0000   1.0000   1.0000   1.0000
     0.0000   0.0000   0.0000   0.0000   0.0000   0.0000   0.0000   0.0000

          k = 0.0833 0.5292 0.0000     band energies (ev):

   -17.0179 -16.9558 -14.9668 -14.9175  -9.5417  -9.5240  -4.2942  -3.8011
     0.0854   0.6339   5.9242   6.0467   9.7739  10.5479  11.1287  11.9238

     occupation numbers 
     1.0000   1.0000   1.0000   1.0000   1.0000   1.0000   1.0000   1.0000
     0.0000   0.0000   0.0000   0.0000   0.0000   0.0000   0.0000   0.0000

          k = 0.1667 0.2887 0.0000     band energies (ev):

   -19.8369 -19.7611 -10.3514 -10.3231  -9.0370  -9.0165  -7.1149  -6.4926
     4.3795   4.6769   5.8299   6.4854   7.5711   7.7381   7.8492   9.1163

     occupation numbers 
     1.0000   1.0000   1.0000   1.0000   1.0000   1.0000   1.0000   1.0000
     0.0000   0.0000   0.0000   0.0000   0.0000   0.0000   0.0000   0.0000

          k = 0.1667 0.3849 0.0000     band energies (ev):

   -18.7574 -18.6874 -12.0083 -11.9724 -10.0494 -10.0253  -5.8794  -5.2981
     2.4890   2.8485   7.2954   7.9175   7.9584   8.1027  10.4293  10.6234

     occupation numbers 
     1.0000   1.0000   1.0000   1.0000   1.0000   1.0000   1.0000   1.0000
     0.0000   0.0000   0.0000   0.0000   0.0000   0.0000   0.0000   0.0000

          k = 0.1667 0.4811 0.0000     band energies (ev):

   -17.4202 -17.3569 -13.8448 -13.8004 -10.6094 -10.5839  -4.4759  -3.9541
     0.6258   1.0676   7.7081   7.8741   9.1870   9.8347  11.8711  12.5564

     occupation numbers 
     1.0000   1.0000   1.0000   1.0000   1.0000   1.0000   1.0000   1.0000
     0.0000   0.0000   0.0000   0.0000   0.0000   0.0000   0.0000   0.0000

          k = 0.1667 0.5774 0.0000     band energies (ev):

   -16.2322 -16.1731 -15.2209 -15.1713 -10.7897 -10.7637  -3.6014  -3.1350
    -0.4174   0.0918   7.6386   7.8041  10.2510  11.0079  11.3680  11.4648

     occupation numbers 
     1.0000   1.0000   1.0000   1.0000   1.0000   1.0000   1.0000   0.0000
     0.0000   0.0000   0.0000   0.0000   0.0000   0.0000   0.0000   0.0000

          k = 0.2500 0.4330 0.0000     band energies (ev):

   -17.5633 -17.4996 -13.0173 -12.9769 -11.4543 -11.4239  -4.5574  -4.0240
     0.9049   1.2893   8.8961   9.7265   9.8809  10.1319  10.2184  10.4903

     occupation numbers 
     1.0000   1.0000   1.0000   1.0000   1.0000   1.0000   1.0000   1.0000
     0.0000   0.0000   0.0000   0.0000   0.0000   0.0000   0.0000   0.0000

          k = 0.2500 0.5292 0.0000     band energies (ev):

   -16.1871 -16.1297 -14.3814 -14.3344 -12.1380 -12.1046  -3.1961  -2.7221
    -0.5836  -0.1534   9.3283   9.8243  10.1168  10.7426  10.8582  11.6953

     occupation numbers 
     1.0000   1.0000   1.0000   1.0000   1.0000   1.0000   0.0000   0.0000
     0.0000   0.0000   0.0000   0.0000   0.0000   0.0000   0.0000   0.0000

          k = 0.3333 0.5774 0.0000     band energies (ev):

   -15.0150 -15.0144 -14.9638 -14.9630 -12.9789 -12.9416  -1.8629  -1.8628
    -1.4256  -1.4241   8.9440  10.7506  11.0461  11.0499  11.8468  11.8494

     occupation numbers 
     1.0000   1.0000   1.0000   1.0000   1.0000   1.0000   0.0000   0.0000
     0.0000   0.0000   0.0000   0.0000   0.0000   0.0000   0.0000   0.0000

          k =-0.0833 0.0481 0.0000     band energies (ev):

   -21.5762 -21.4908  -9.1849  -8.5059  -6.4672  -6.4552  -6.1791  -6.1694
     3.4622   4.0413   4.9689   5.9304   5.9747   6.0731   6.5270   6.5532

     occupation numbers 
     1.0000   1.0000   1.0000   1.0000   1.0000   1.0000   1.0000   1.0000
     0.0000   0.0000   0.0000   0.0000   0.0000   0.0000   0.0000   0.0000

          k = 0.0833 0.0481 0.0000     band energies (ev):

   -21.5762 -21.4908  -9.1850  -8.5058  -6.4672  -6.4552  -6.1791  -6.1694
     3.4622   4.0488   4.8908   5.8778   5.9788   6.0191   6.5269   6.5542

     occupation numbers 
     1.0000   1.0000   1.0000   1.0000   1.0000   1.0000   1.0000   1.0000
     0.0000   0.0000   0.0000   0.0000   0.0000   0.0000   0.0000   0.0000

          k =-0.1667 0.0962 0.0000     band energies (ev):

   -21.0975 -21.0148  -8.6087  -8.0097  -7.9906  -7.9439  -6.9296  -6.9185
     4.1054   4.7020   5.5748   5.9970   6.0267   6.6589   6.8183   7.2705

     occupation numbers 
     1.0000   1.0000   1.0000   1.0000   1.0000   1.0000   1.0000   1.0000
     0.0000   0.0000   0.0000   0.0000   0.0000   0.0000   0.0000   0.0000

          k = 0.1667 0.0962 0.0000     band energies (ev):

   -21.0975 -21.0148  -8.6086  -8.0096  -7.9906  -7.9439  -6.9296  -6.9185
     4.1111   4.7041   5.8281   6.0265   6.0911   6.7409   7.2315   7.4566

     occupation numbers 
     1.0000   1.0000   1.0000   1.0000   1.0000   1.0000   1.0000   1.0000
     0.0000   0.0000   0.0000   0.0000   0.0000   0.0000   0.0000   0.0000

          k =-0.2500 0.1443 0.0000     band energies (ev):

   -20.3064 -20.2280 -10.0091  -9.9809  -7.7723  -7.7596  -7.6691  -7.0309
     5.1431   5.2209   5.4835   5.7805   5.8274   5.9425   6.7509   7.7353

     occupation numbers 
     1.0000   1.0000   1.0000   1.0000   1.0000   1.0000   1.0000   1.0000
     0.0000   0.0000   0.0000   0.0000   0.0000   0.0000   0.0000   0.0000

          k = 0.2500 0.1443 0.0000     band energies (ev):

   -20.3063 -20.2280 -10.0091  -9.9809  -7.7723  -7.7596  -7.6691  -7.0309
     5.1427   5.2209   5.4861   5.7933   5.8276   5.9621   6.6874   7.6346

     occupation numbers 
     1.0000   1.0000   1.0000   1.0000   1.0000   1.0000   1.0000   1.0000
     0.0000   0.0000   0.0000   0.0000   0.0000   0.0000   0.0000   0.0000

          k =-0.3333 0.1925 0.0000     band energies (ev):

   -19.2155 -19.1429 -12.1259 -12.0884  -8.4800  -8.4663  -6.4182  -5.8211
     2.9767   3.3889   5.4861   5.6084   6.7252   7.4018   8.2256   9.0669

     occupation numbers 
     1.0000   1.0000   1.0000   1.0000   1.0000   1.0000   1.0000   1.0000
     0.0000   0.0000   0.0000   0.0000   0.0000   0.0000   0.0000   0.0000

          k = 0.3333 0.1925 0.0000     band energies (ev):

   -19.2155 -19.1430 -12.1259 -12.0884  -8.4799  -8.4664  -6.4182  -5.8211
     2.9764   3.3885   5.4861   5.6086   6.7251   7.3770   8.2575   9.1242

     occupation numbers 
     1.0000   1.0000   1.0000   1.0000   1.0000   1.0000   1.0000   1.0000
     0.0000   0.0000   0.0000   0.0000   0.0000   0.0000   0.0000   0.0000

          k =-0.4167 0.2406 0.0000     band energies (ev):

   -17.8575 -17.7916 -14.1535 -14.1070  -8.9382  -8.9241  -5.0184  -4.4855
     0.8920   1.4142   5.3020   5.4200   8.5864   9.3210  10.2343  11.0755

     occupation numbers 
     1.0000   1.0000   1.0000   1.0000   1.0000   1.0000   1.0000   1.0000
     0.0000   0.0000   0.0000   0.0000   0.0000   0.0000   0.0000   0.0000

          k = 0.4167 0.2406 0.0000     band energies (ev):

   -17.8575 -17.7915 -14.1535 -14.1070  -8.9380  -8.9240  -5.0184  -4.4855
     0.8921   1.4141   5.3020   5.4201   8.5865   9.3165  10.1652  10.8809

     occupation numbers 
     1.0000   1.0000   1.0000   1.0000   1.0000   1.0000   1.0000   1.0000
     0.0000   0.0000   0.0000   0.0000   0.0000   0.0000   0.0000   0.0000

          k = 0.5000-0.2887 0.0000     band energies (ev):

   -16.6405 -16.5789 -15.6008 -15.5500  -9.0953  -9.0812  -4.1912  -3.7181
    -0.1764   0.4191   5.2356   5.3524  10.6980  10.8021  11.6697  11.7426

     occupation numbers 
     1.0000   1.0000   1.0000   1.0000   1.0000   1.0000   1.0000   1.0000
     0.0000   0.0000   0.0000   0.0000   0.0000   0.0000   0.0000   0.0000

          k =-0.5000-0.2887 0.0000     band energies (ev):

   -16.6405 -16.5789 -15.6009 -15.5500  -9.0953  -9.0812  -4.1912  -3.7181
    -0.1764   0.4190   5.2354   5.3521  10.6938  10.8174  11.5812  11.7444

     occupation numbers 
     1.0000   1.0000   1.0000   1.0000   1.0000   1.0000   1.0000   1.0000
     0.0000   0.0000   0.0000   0.0000   0.0000   0.0000   0.0000   0.0000

          k =-0.0833 0.1443 0.0000     band energies (ev):

   -21.2567 -21.1732  -8.7997  -8.1301  -7.4439  -7.4276  -6.8117  -6.7997
     3.8924   4.4830   5.3201   6.2116   6.2909   6.4356   6.5521   7.4105

     occupation numbers 
     1.0000   1.0000   1.0000   1.0000   1.0000   1.0000   1.0000   1.0000
     0.0000   0.0000   0.0000   0.0000   0.0000   0.0000   0.0000   0.0000

          k = 0.1667-0.0000 0.0000     band energies (ev):

   -21.2568 -21.1732  -8.7996  -8.1300  -7.4427  -7.4264  -6.8129  -6.8009
     3.8932   4.5106   5.3774   6.2236   6.2999   6.4504   7.4116   7.4464

     occupation numbers 
     1.0000   1.0000   1.0000   1.0000   1.0000   1.0000   1.0000   1.0000
     0.0000   0.0000   0.0000   0.0000   0.0000   0.0000   0.0000   0.0000

          k =-0.0833 0.2406 0.0000     band energies (ev):

   -20.6218 -20.5418  -9.0684  -9.0449  -8.0407  -7.7565  -7.7421  -7.3913
     4.7620   5.3657   6.0280   6.2900   6.4504   6.5411   6.9245   7.4485

     occupation numbers 
     1.0000   1.0000   1.0000   1.0000   1.0000   1.0000   1.0000   1.0000
     0.0000   0.0000   0.0000   0.0000   0.0000   0.0000   0.0000   0.0000

          k =-0.1667 0.1925 0.0000     band energies (ev):

   -20.6218 -20.5418  -9.0679  -9.0444  -8.0408  -7.7571  -7.7426  -7.3912
     4.7524   5.3611   6.0256   6.2901   6.3123   6.5379   6.5742   7.3325

     occupation numbers 
     1.0000   1.0000   1.0000   1.0000   1.0000   1.0000   1.0000   1.0000
     0.0000   0.0000   0.0000   0.0000   0.0000   0.0000   0.0000   0.0000

          k = 0.2500 0.0481 0.0000     band energies (ev):

   -20.6218 -20.5418  -9.0674  -9.0438  -8.0408  -7.7577  -7.7431  -7.3914
     4.7618   5.3624   6.0273   6.2905   6.4406   6.5399   6.8451   7.4309

     occupation numbers 
     1.0000   1.0000   1.0000   1.0000   1.0000   1.0000   1.0000   1.0000
     0.0000   0.0000   0.0000   0.0000   0.0000   0.0000   0.0000   0.0000

          k =-0.1667-0.1925 0.0000     band energies (ev):

   -20.6218 -20.5418  -9.0678  -9.0444  -8.0407  -7.7571  -7.7426  -7.3913
     4.7502   5.3657   6.0258   6.2891   6.3708   6.5400   6.5988   7.3235

     occupation numbers 
     1.0000   1.0000   1.0000   1.0000   1.0000   1.0000   1.0000   1.0000
     0.0000   0.0000   0.0000   0.0000   0.0000   0.0000   0.0000   0.0000

          k = 0.2500-0.0481 0.0000     band energies (ev):

   -20.6218 -20.5418  -9.0673  -9.0438  -8.0408  -7.7577  -7.7432  -7.3913
     4.7532   5.3615   6.0265   6.2904   6.3936   6.5405   6.6718   7.3960

     occupation numbers 
     1.0000   1.0000   1.0000   1.0000   1.0000   1.0000   1.0000   1.0000
     0.0000   0.0000   0.0000   0.0000   0.0000   0.0000   0.0000   0.0000

          k =-0.0833 0.3368 0.0000     band energies (ev):

   -19.6807 -19.6058 -11.0504 -11.0181  -8.6084  -8.5921  -6.9389  -6.3226
     3.9592   4.3017   5.9589   6.3739   6.4011   6.7206   7.5638   8.4402

     occupation numbers 
     1.0000   1.0000   1.0000   1.0000   1.0000   1.0000   1.0000   1.0000
     0.0000   0.0000   0.0000   0.0000   0.0000   0.0000   0.0000   0.0000

          k =-0.2500 0.2406 0.0000     band energies (ev):

   -19.6807 -19.6058 -11.0499 -11.0176  -8.6091  -8.5926  -6.9389  -6.3228
     3.9596   4.3022   5.9587   6.3723   6.4009   6.7277   7.5974   8.4600

     occupation numbers 
     1.0000   1.0000   1.0000   1.0000   1.0000   1.0000   1.0000   1.0000
     0.0000   0.0000   0.0000   0.0000   0.0000   0.0000   0.0000   0.0000

          k = 0.3333 0.0962 0.0000     band energies (ev):

   -19.6807 -19.6058 -11.0497 -11.0174  -8.6094  -8.5929  -6.9390  -6.3228
     3.9593   4.3026   5.9590   6.3713   6.4017   6.7198   7.6773   8.6094

     occupation numbers 
     1.0000   1.0000   1.0000   1.0000   1.0000   1.0000   1.0000   1.0000
     0.0000   0.0000   0.0000   0.0000   0.0000   0.0000   0.0000   0.0000

          k =-0.2500-0.2406 0.0000     band energies (ev):

   -19.6807 -19.6057 -11.0499 -11.0175  -8.6091  -8.5926  -6.9390  -6.3227
     3.9595   4.3021   5.9590   6.3748   6.4009   6.7351   7.5792   8.4311

     occupation numbers 
     1.0000   1.0000   1.0000   1.0000   1.0000   1.0000   1.0000   1.0000
     0.0000   0.0000   0.0000   0.0000   0.0000   0.0000   0.0000   0.0000

          k = 0.3333-0.0962 0.0000     band energies (ev):

   -19.6807 -19.6058 -11.0497 -11.0174  -8.6093  -8.5929  -6.9390  -6.3228
     3.9594   4.3027   5.9586   6.3712   6.4016   6.7197   7.7384   8.7143

     occupation numbers 
     1.0000   1.0000   1.0000   1.0000   1.0000   1.0000   1.0000   1.0000
     0.0000   0.0000   0.0000   0.0000   0.0000   0.0000   0.0000   0.0000

          k =-0.0833 0.4330 0.0000     band energies (ev):

   -18.4531 -18.3845 -13.0935 -13.0520  -9.2229  -9.2056  -5.5795  -5.0142
     1.8095   2.2564   6.0568   6.1798   7.7624   8.4553   9.3086  10.0075

     occupation numbers 
     1.0000   1.0000   1.0000   1.0000   1.0000   1.0000   1.0000   1.0000
     0.0000   0.0000   0.0000   0.0000   0.0000   0.0000   0.0000   0.0000

          k =-0.3333 0.2887 0.0000     band energies (ev):

   -18.4531 -18.3845 -13.0930 -13.0515  -9.2236  -9.2062  -5.5795  -5.0146
     1.8103   2.2568   6.0560   6.1801   7.7647   8.4563   9.3256  10.0678

     occupation numbers 
     1.0000   1.0000   1.0000   1.0000   1.0000   1.0000   1.0000   1.0000
     0.0000   0.0000   0.0000   0.0000   0.0000   0.0000   0.0000   0.0000

          k = 0.4167 0.1443 0.0000     band energies (ev):

   -18.4530 -18.3845 -13.0929 -13.0515  -9.2236  -9.2063  -5.5796  -5.0147
     1.8102   2.2573   6.0558   6.1798   7.7656   8.4521   9.3072  10.0470

     occupation numbers 
     1.0000   1.0000   1.0000   1.0000   1.0000   1.0000   1.0000   1.0000
     0.0000   0.0000   0.0000   0.0000   0.0000   0.0000   0.0000   0.0000

          k =-0.3333-0.2887 0.0000     band energies (ev):

   -18.4531 -18.3845 -13.0930 -13.0515  -9.2235  -9.2062  -5.5795  -5.0146
     1.8108   2.2569   6.0560   6.1800   7.7649   8.4510   9.3310  10.0589

     occupation numbers 
     1.0000   1.0000   1.0000   1.0000   1.0000   1.0000   1.0000   1.0000
     0.0000   0.0000   0.0000   0.0000   0.0000   0.0000   0.0000   0.0000

          k = 0.4167-0.1443 0.0000     band energies (ev):

   -18.4531 -18.3845 -13.0929 -13.0515  -9.2236  -9.2063  -5.5796  -5.0147
     1.8103   2.2572   6.0558   6.1799   7.7630   8.4518   9.3259  10.0685

     occupation numbers 
     1.0000   1.0000   1.0000   1.0000   1.0000   1.0000   1.0000   1.0000
     0.0000   0.0000   0.0000   0.0000   0.0000   0.0000   0.0000   0.0000

          k =-0.0833 0.5292 0.0000     band energies (ev):

   -17.0180 -16.9558 -14.9668 -14.9175  -9.5417  -9.5239  -4.2942  -3.8011
     0.0853   0.6339   5.9242   6.0467   9.7888  10.5428  11.0837  11.8710

     occupation numbers 
     1.0000   1.0000   1.0000   1.0000   1.0000   1.0000   1.0000   1.0000
     0.0000   0.0000   0.0000   0.0000   0.0000   0.0000   0.0000   0.0000

          k =-0.4167 0.3368 0.0000     band energies (ev):

   -17.0181 -16.9560 -14.9662 -14.9169  -9.5423  -9.5245  -4.2942  -3.8023
     0.0869   0.6342   5.9233   6.0470   9.7749  10.5342  11.1381  11.9025

     occupation numbers 
     1.0000   1.0000   1.0000   1.0000   1.0000   1.0000   1.0000   1.0000
     0.0000   0.0000   0.0000   0.0000   0.0000   0.0000   0.0000   0.0000

          k = 0.5000 0.1925 0.0000     band energies (ev):

   -17.0181 -16.9560 -14.9662 -14.9169  -9.5424  -9.5245  -4.2942  -3.8023
     0.0868   0.6345   5.9232   6.0470   9.7781  10.5365  11.1248  11.8830

     occupation numbers 
     1.0000   1.0000   1.0000   1.0000   1.0000   1.0000   1.0000   1.0000
     0.0000   0.0000   0.0000   0.0000   0.0000   0.0000   0.0000   0.0000

          k =-0.4167-0.3368 0.0000     band energies (ev):

   -17.0181 -16.9560 -14.9662 -14.9169  -9.5423  -9.5245  -4.2942  -3.8023
     0.0870   0.6342   5.9233   6.0470   9.7727  10.5373  11.0974  11.8513

     occupation numbers 
     1.0000   1.0000   1.0000   1.0000   1.0000   1.0000   1.0000   1.0000
     0.0000   0.0000   0.0000   0.0000   0.0000   0.0000   0.0000   0.0000

          k = 0.5000-0.1925 0.0000     band energies (ev):

   -17.0181 -16.9560 -14.9662 -14.9169  -9.5424  -9.5245  -4.2942  -3.8024
     0.0867   0.6343   5.9233   6.0470   9.7817  10.5492  11.0902  11.8663

     occupation numbers 
     1.0000   1.0000   1.0000   1.0000   1.0000   1.0000   1.0000   1.0000
     0.0000   0.0000   0.0000   0.0000   0.0000   0.0000   0.0000   0.0000

          k =-0.1667 0.2887 0.0000     band energies (ev):

   -19.8369 -19.7611 -10.3514 -10.3231  -9.0370  -9.0165  -7.1149  -6.4926
     4.3794   4.6769   5.8372   6.4914   7.5290   7.7344   7.8099   9.1152

     occupation numbers 
     1.0000   1.0000   1.0000   1.0000   1.0000   1.0000   1.0000   1.0000
     0.0000   0.0000   0.0000   0.0000   0.0000   0.0000   0.0000   0.0000

          k = 0.3333-0.0000 0.0000     band energies (ev):

   -19.8369 -19.7611 -10.3506 -10.3221  -9.0380  -9.0174  -7.1151  -6.4928
     4.3792   4.6779   5.8275   6.4851   7.5356   7.7334   7.8258   9.1184

     occupation numbers 
     1.0000   1.0000   1.0000   1.0000   1.0000   1.0000   1.0000   1.0000
     0.0000   0.0000   0.0000   0.0000   0.0000   0.0000   0.0000   0.0000

          k =-0.1667 0.3849 0.0000     band energies (ev):

   -18.7574 -18.6875 -12.0083 -11.9724 -10.0494 -10.0254  -5.8794  -5.2981
     2.4887   2.8484   7.3078   7.9225   7.9600   8.1070  10.4686  10.7030

     occupation numbers 
     1.0000   1.0000   1.0000   1.0000   1.0000   1.0000   1.0000   1.0000
     0.0000   0.0000   0.0000   0.0000   0.0000   0.0000   0.0000   0.0000

          k =-0.2500 0.3368 0.0000     band energies (ev):

   -18.7574 -18.6874 -12.0080 -11.9721 -10.0498 -10.0257  -5.8794  -5.2982
     2.4894   2.8486   7.2946   7.9317   7.9591   8.1115  10.4969  10.7334

     occupation numbers 
     1.0000   1.0000   1.0000   1.0000   1.0000   1.0000   1.0000   1.0000
     0.0000   0.0000   0.0000   0.0000   0.0000   0.0000   0.0000   0.0000

          k = 0.4167 0.0481 0.0000     band energies (ev):

   -18.7574 -18.6874 -12.0076 -11.9716 -10.0503 -10.0262  -5.8795  -5.2984
     2.4886   2.8496   7.3144   7.9221   7.9585   8.1052  10.5290  10.7304

     occupation numbers 
     1.0000   1.0000   1.0000   1.0000   1.0000   1.0000   1.0000   1.0000
     0.0000   0.0000   0.0000   0.0000   0.0000   0.0000   0.0000   0.0000

          k =-0.2500-0.3368 0.0000     band energies (ev):

   -18.7575 -18.6875 -12.0080 -11.9721 -10.0499 -10.0258  -5.8796  -5.2982
     2.4876   2.8486   7.2749   7.9195   7.9479   8.1058   8.9655  10.5343

     occupation numbers 
     1.0000   1.0000   1.0000   1.0000   1.0000   1.0000   1.0000   1.0000
     0.0000   0.0000   0.0000   0.0000   0.0000   0.0000   0.0000   0.0000

          k = 0.4167-0.0481 0.0000     band energies (ev):

   -18.7575 -18.6874 -12.0076 -11.9716 -10.0504 -10.0262  -5.8796  -5.2984
     2.4874   2.8496   7.2763   7.9235   7.9526   8.1099   8.9708  10.5334

     occupation numbers 
     1.0000   1.0000   1.0000   1.0000   1.0000   1.0000   1.0000   1.0000
     0.0000   0.0000   0.0000   0.0000   0.0000   0.0000   0.0000   0.0000

          k =-0.1667 0.4811 0.0000     band energies (ev):

   -17.4201 -17.3569 -13.8447 -13.8004 -10.6094 -10.5839  -4.4759  -3.9541
     0.6258   1.0676   7.7077   7.8738   9.1695   9.8702  11.8750  12.5774

     occupation numbers 
     1.0000   1.0000   1.0000   1.0000   1.0000   1.0000   1.0000   1.0000
     0.0000   0.0000   0.0000   0.0000   0.0000   0.0000   0.0000   0.0000

          k =-0.3333 0.3849 0.0000     band energies (ev):

   -17.4202 -17.3569 -13.8443 -13.7999 -10.6099 -10.5844  -4.4759  -3.9546
     0.6263   1.0679   7.7072   7.8747   9.1776   9.8674  11.8459  12.5681

     occupation numbers 
     1.0000   1.0000   1.0000   1.0000   1.0000   1.0000   1.0000   1.0000
     0.0000   0.0000   0.0000   0.0000   0.0000   0.0000   0.0000   0.0000

          k = 0.5000 0.0962 0.0000     band energies (ev):

   -17.4202 -17.3569 -13.8442 -13.7998 -10.6101 -10.5846  -4.4760  -3.9548
     0.6257   1.0687   7.7068   7.8740   9.1779   9.8465  11.8461  12.5396

     occupation numbers 
     1.0000   1.0000   1.0000   1.0000   1.0000   1.0000   1.0000   1.0000
     0.0000   0.0000   0.0000   0.0000   0.0000   0.0000   0.0000   0.0000

          k =-0.3333-0.3849 0.0000     band energies (ev):

   -17.4202 -17.3570 -13.8443 -13.7999 -10.6100 -10.5844  -4.4759  -3.9546
     0.6240   1.0676   7.7061   7.8741   9.1558   9.8449  10.1148  11.7581

     occupation numbers 
     1.0000   1.0000   1.0000   1.0000   1.0000   1.0000   1.0000   1.0000
     0.0000   0.0000   0.0000   0.0000   0.0000   0.0000   0.0000   0.0000

          k = 0.5000-0.0962 0.0000     band energies (ev):

   -17.4202 -17.3569 -13.8442 -13.7998 -10.6101 -10.5846  -4.4760  -3.9548
     0.6257   1.0688   7.7073   7.8745   9.1714   9.8669  11.7939  12.5878

     occupation numbers 
     1.0000   1.0000   1.0000   1.0000   1.0000   1.0000   1.0000   1.0000
     0.0000   0.0000   0.0000   0.0000   0.0000   0.0000   0.0000   0.0000

          k =-0.4167 0.4330 0.0000     band energies (ev):

   -16.2326 -16.1737 -15.2199 -15.1704 -10.7902 -10.7642  -3.6013  -3.1366
    -0.4161   0.0925   7.6375   7.8045  10.2520  11.0067  11.3688  11.4834

     occupation numbers 
     1.0000   1.0000   1.0000   1.0000   1.0000   1.0000   1.0000   0.0000
     0.0000   0.0000   0.0000   0.0000   0.0000   0.0000   0.0000   0.0000

          k = 0.5833 0.1443 0.0000     band energies (ev):

   -16.2326 -16.1737 -15.2199 -15.1704 -10.7902 -10.7643  -3.6013  -3.1366
    -0.4159   0.0927   7.6377   7.8045  10.2441  10.9981  11.4060  11.4526

     occupation numbers 
     1.0000   1.0000   1.0000   1.0000   1.0000   1.0000   1.0000   0.0000
     0.0000   0.0000   0.0000   0.0000   0.0000   0.0000   0.0000   0.0000

          k =-0.2500 0.4330 0.0000     band energies (ev):

   -17.5633 -17.4996 -13.0174 -12.9769 -11.4543 -11.4239  -4.5574  -4.0240
     0.9048   1.2893   8.9119   9.5640   9.8964  10.1250  10.2180  10.4899

     occupation numbers 
     1.0000   1.0000   1.0000   1.0000   1.0000   1.0000   1.0000   1.0000
     0.0000   0.0000   0.0000   0.0000   0.0000   0.0000   0.0000   0.0000

          k = 0.5000 0.0000 0.0000     band energies (ev):

   -17.5633 -17.4996 -13.0167 -12.9761 -11.4551 -11.4246  -4.5575  -4.0244
     0.9047   1.2906   8.8922   9.5768   9.8785  10.1268  10.2192  10.4910

     occupation numbers 
     1.0000   1.0000   1.0000   1.0000   1.0000   1.0000   1.0000   1.0000
     0.0000   0.0000   0.0000   0.0000   0.0000   0.0000   0.0000   0.0000

          k =-0.2500 0.5292 0.0000     band energies (ev):

   -16.1870 -16.1297 -14.3814 -14.3344 -12.1381 -12.1045  -3.1961  -2.7222
    -0.5836  -0.1534   9.3527   9.8257  10.1175  10.7536  10.8713  11.7210

     occupation numbers 
     1.0000   1.0000   1.0000   1.0000   1.0000   1.0000   0.0000   0.0000
     0.0000   0.0000   0.0000   0.0000   0.0000   0.0000   0.0000   0.0000

          k =-0.3333 0.4811 0.0000     band energies (ev):

   -16.1872 -16.1298 -14.3809 -14.3339 -12.1385 -12.1049  -3.1960  -2.7230
    -0.5831  -0.1529   9.3287   9.8245  10.1162  10.7413  10.8562  11.6974

     occupation numbers 
     1.0000   1.0000   1.0000   1.0000   1.0000   1.0000   0.0000   0.0000
     0.0000   0.0000   0.0000   0.0000   0.0000   0.0000   0.0000   0.0000

          k = 0.5833 0.0481 0.0000     band energies (ev):

   -16.1872 -16.1299 -14.3807 -14.3336 -12.1387 -12.1051  -3.1962  -2.7232
    -0.5833  -0.1519   9.3563   9.8260  10.1154  10.7507  10.8767  11.7222

     occupation numbers 
     1.0000   1.0000   1.0000   1.0000   1.0000   1.0000   0.0000   0.0000
     0.0000   0.0000   0.0000   0.0000   0.0000   0.0000   0.0000   0.0000

          k =-0.3333-0.4811 0.0000     band energies (ev):

   -16.1872 -16.1298 -14.3809 -14.3339 -12.1385 -12.1049  -3.1960  -2.7230
    -0.5831  -0.1528   9.3525   9.8255  10.1162  10.7489  10.8839  11.7170

     occupation numbers 
     1.0000   1.0000   1.0000   1.0000   1.0000   1.0000   0.0000   0.0000
     0.0000   0.0000   0.0000   0.0000   0.0000   0.0000   0.0000   0.0000

          k = 0.5833-0.0481 0.0000     band energies (ev):

   -16.1872 -16.1299 -14.3807 -14.3336 -12.1387 -12.1051  -3.1962  -2.7232
    -0.5833  -0.1519   9.3498   9.8256  10.1166  10.7437  10.8611  11.7084

     occupation numbers 
     1.0000   1.0000   1.0000   1.0000   1.0000   1.0000   0.0000   0.0000
     0.0000   0.0000   0.0000   0.0000   0.0000   0.0000   0.0000   0.0000

 ------ SPIN DOWN ----------


          k = 0.0000 0.0000 0.0000     band energies (ev):

   -25.4025 -25.3333 -12.5728 -12.0207  -9.8665  -9.8646  -9.8590  -9.8572
     1.9788   2.0979   2.1001   2.1198   2.1216   3.1142   4.2819   5.4115

     occupation numbers 
     1.0000   1.0000   1.0000   1.0000   1.0000   1.0000   1.0000   1.0000
     0.0000   0.0000   0.0000   0.0000   0.0000   0.0000   0.0000   0.0000

          k = 0.0000 0.0962 0.0000     band energies (ev):

   -25.2449 -25.1764 -12.3830 -11.8351 -10.4510 -10.4413 -10.1702 -10.1623
     2.0741   2.2331   2.3427   2.7471   2.7674   3.3430   4.9110   5.0269

     occupation numbers 
     1.0000   1.0000   1.0000   1.0000   1.0000   1.0000   1.0000   1.0000
     0.0000   0.0000   0.0000   0.0000   0.0000   0.0000   0.0000   0.0000

          k = 0.0000 0.1925 0.0000     band energies (ev):

   -24.7741 -24.7078 -11.9453 -11.9297 -11.8204 -11.2850 -10.8976 -10.8888
     2.2090   2.3218   2.9093   3.5497   3.7086   4.0028   4.4825   4.5008

     occupation numbers 
     1.0000   1.0000   1.0000   1.0000   1.0000   1.0000   1.0000   1.0000
     0.0000   0.0000   0.0000   0.0000   0.0000   0.0000   0.0000   0.0000

          k = 0.0000 0.2887 0.0000     band energies (ev):

   -23.9964 -23.9336 -13.8910 -13.8686 -11.7197 -11.7099 -10.9056 -10.3926
     1.6361   1.8712   2.1188   2.2071   3.9131   5.0789   6.8950   6.9095

     occupation numbers 
     1.0000   1.0000   1.0000   1.0000   1.0000   1.0000   1.0000   1.0000
     0.0000   0.0000   0.0000   0.0000   0.0000   0.0000   0.0000   0.0000

          k = 0.0000 0.3849 0.0000     band energies (ev):

   -22.9250 -22.8668 -15.9577 -15.9278 -12.4132 -12.4028  -9.6936  -9.2152
    -0.4972  -0.1792   1.9089   1.9993   5.3053   6.5596   9.5623   9.5641

     occupation numbers 
     1.0000   1.0000   1.0000   1.0000   1.0000   1.0000   1.0000   1.0000
     0.0000   0.0000   0.0000   0.0000   0.0000   0.0000   0.0000   0.0000

          k = 0.0000 0.4811 0.0000     band energies (ev):

   -21.5947 -21.5419 -17.9387 -17.9016 -12.8633 -12.8527  -8.3532  -7.9263
    -2.4747  -2.0710   1.7382   1.8290   7.0259   8.3475  10.4068  11.8875

     occupation numbers 
     1.0000   1.0000   1.0000   1.0000   1.0000   1.0000   1.0000   1.0000
     0.0000   0.0000   0.0000   0.0000   0.0000   0.0000   0.0000   0.0000

          k = 0.0000-0.5774 0.0000     band energies (ev):

   -20.4238 -20.3741 -19.3342 -19.2934 -13.0179 -13.0067  -7.5800  -7.1976
    -3.4756  -3.0131   1.6738   1.7672   8.8413   8.9086  10.3654  10.4971

     occupation numbers 
     1.0000   1.0000   1.0000   1.0000   1.0000   1.0000   1.0000   1.0000
     0.0000   0.0000   0.0000   0.0000   0.0000   0.0000   0.0000   0.0000

          k = 0.0833 0.1443 0.0000     band energies (ev):

   -24.9307 -24.8637 -12.0068 -11.4671 -11.3990 -11.3859 -10.7788 -10.7692
     2.3636   2.5727   2.7974   3.6234   3.6489   3.8203   3.9915   4.1374

     occupation numbers 
     1.0000   1.0000   1.0000   1.0000   1.0000   1.0000   1.0000   1.0000
     0.0000   0.0000   0.0000   0.0000   0.0000   0.0000   0.0000   0.0000

          k = 0.0833 0.2406 0.0000     band energies (ev):

   -24.3065 -24.2423 -12.9800 -12.9612 -11.6933 -11.6817 -11.2667 -10.7444
     2.3924   2.5906   2.7166   2.8481   3.5447   4.6436   5.1328   5.1693

     occupation numbers 
     1.0000   1.0000   1.0000   1.0000   1.0000   1.0000   1.0000   1.0000
     0.0000   0.0000   0.0000   0.0000   0.0000   0.0000   0.0000   0.0000

          k = 0.0833 0.3368 0.0000     band energies (ev):

   -23.3817 -23.3217 -14.9111 -14.8853 -12.5258 -12.5128 -10.1965  -9.7023
     0.4183   0.6846   2.6534   2.7491   4.7051   5.8775   7.2309   7.3116

     occupation numbers 
     1.0000   1.0000   1.0000   1.0000   1.0000   1.0000   1.0000   1.0000
     0.0000   0.0000   0.0000   0.0000   0.0000   0.0000   0.0000   0.0000

          k = 0.0833 0.4330 0.0000     band energies (ev):

   -22.1773 -22.1222 -16.9056 -16.8724 -13.1291 -13.1153  -8.8852  -8.4330
    -1.6270  -1.2818   2.4659   2.5652   6.2563   7.5470   9.2528   9.5464

     occupation numbers 
     1.0000   1.0000   1.0000   1.0000   1.0000   1.0000   1.0000   1.0000
     0.0000   0.0000   0.0000   0.0000   0.0000   0.0000   0.0000   0.0000

          k = 0.0833 0.5292 0.0000     band energies (ev):

   -20.7782 -20.7281 -18.7302 -18.6904 -13.4429 -13.4285  -7.6666  -7.2710
    -3.2555  -2.8301   2.3414   2.4459   8.0087   9.1757   9.3573   9.9497

     occupation numbers 
     1.0000   1.0000   1.0000   1.0000   1.0000   1.0000   1.0000   1.0000
     0.0000   0.0000   0.0000   0.0000   0.0000   0.0000   0.0000   0.0000

          k = 0.1667 0.2887 0.0000     band energies (ev):

   -23.5351 -23.4745 -14.2431 -14.2204 -12.9218 -12.9057 -10.3667  -9.8673
     0.7925   1.0281   3.8493   4.0531   4.6358   5.3418   5.4138   5.7178

     occupation numbers 
     1.0000   1.0000   1.0000   1.0000   1.0000   1.0000   1.0000   1.0000
     0.0000   0.0000   0.0000   0.0000   0.0000   0.0000   0.0000   0.0000

          k = 0.1667 0.3849 0.0000     band energies (ev):

   -22.4756 -22.4195 -15.8597 -15.8310 -13.9080 -13.8891  -9.1702  -8.7049
    -1.0293  -0.7445   4.2265   4.3588   5.8569   6.8736   6.9079   7.1774

     occupation numbers 
     1.0000   1.0000   1.0000   1.0000   1.0000   1.0000   1.0000   1.0000
     0.0000   0.0000   0.0000   0.0000   0.0000   0.0000   0.0000   0.0000

          k = 0.1667 0.4811 0.0000     band energies (ev):

   -21.1666 -21.1158 -17.6469 -17.6115 -14.4606 -14.4405  -7.8227  -7.4054
    -2.8103  -2.4622   4.0935   4.2179   7.3747   8.5986   8.6305   9.0889

     occupation numbers 
     1.0000   1.0000   1.0000   1.0000   1.0000   1.0000   1.0000   1.0000
     0.0000   0.0000   0.0000   0.0000   0.0000   0.0000   0.0000   0.0000

          k = 0.1667 0.5774 0.0000     band energies (ev):

   -20.0229 -19.9754 -18.9713 -18.9317 -14.6389 -14.6184  -6.9993  -6.6242
    -3.7893  -3.3921   4.0257   4.1520   8.0301   8.6262   9.7948   9.8549

     occupation numbers 
     1.0000   1.0000   1.0000   1.0000   1.0000   1.0000   1.0000   1.0000
     1.0000   0.0000   0.0000   0.0000   0.0000   0.0000   0.0000   0.0000

          k = 0.2500 0.4330 0.0000     band energies (ev):

   -21.3058 -21.2548 -16.8621 -16.8296 -15.2561 -15.2323  -7.8939  -7.4676
    -2.5819  -2.2755   6.2029   6.4879   6.5116   6.6977   7.3924   8.4211

     occupation numbers 
     1.0000   1.0000   1.0000   1.0000   1.0000   1.0000   1.0000   1.0000
     0.0000   0.0000   0.0000   0.0000   0.0000   0.0000   0.0000   0.0000

          k = 0.2500 0.5292 0.0000     band energies (ev):

   -19.9651 -19.9190 -18.1858 -18.1480 -15.9246 -15.8983  -6.5885  -6.2089
    -4.0229  -3.6807   6.1985   6.4275   7.1712   7.9849   8.6288   8.8438

     occupation numbers 
     1.0000   1.0000   1.0000   1.0000   1.0000   1.0000   1.0000   1.0000
     1.0000   1.0000   0.0000   0.0000   0.0000   0.0000   0.0000   0.0000

          k = 0.3333 0.5774 0.0000     band energies (ev):

   -18.8264 -18.8257 -18.7852 -18.7843 -16.7156 -16.6862  -5.2910  -5.2907
    -4.9405  -4.9391   6.7702   7.7028   7.7043   8.1901   8.1915   8.5425

     occupation numbers 
     1.0000   1.0000   1.0000   1.0000   1.0000   1.0000   1.0000   1.0000
     1.0000   1.0000   0.0000   0.0000   0.0000   0.0000   0.0000   0.0000

          k =-0.0833 0.0481 0.0000     band energies (ev):

   -25.2448 -25.1764 -12.3829 -11.8351 -10.4498 -10.4401 -10.1714 -10.1635
     2.0687   2.2319   2.3408   2.7487   2.7692   3.3404   4.9131   5.0284

     occupation numbers 
     1.0000   1.0000   1.0000   1.0000   1.0000   1.0000   1.0000   1.0000
     0.0000   0.0000   0.0000   0.0000   0.0000   0.0000   0.0000   0.0000

          k = 0.0833 0.0481 0.0000     band energies (ev):

   -25.2448 -25.1764 -12.3829 -11.8351 -10.4498 -10.4401 -10.1714 -10.1635
     2.0741   2.2318   2.3414   2.7487   2.7692   3.3412   4.9098   5.0281

     occupation numbers 
     1.0000   1.0000   1.0000   1.0000   1.0000   1.0000   1.0000   1.0000
     0.0000   0.0000   0.0000   0.0000   0.0000   0.0000   0.0000   0.0000

          k =-0.1667 0.0962 0.0000     band energies (ev):

   -24.7741 -24.7078 -11.9443 -11.9288 -11.8206 -11.2850 -10.8987 -10.8898
     2.2062   2.3205   2.9111   3.5498   3.7081   3.9711   4.4842   4.5023

     occupation numbers 
     1.0000   1.0000   1.0000   1.0000   1.0000   1.0000   1.0000   1.0000
     0.0000   0.0000   0.0000   0.0000   0.0000   0.0000   0.0000   0.0000

          k = 0.1667 0.0962 0.0000     band energies (ev):

   -24.7741 -24.7078 -11.9443 -11.9288 -11.8204 -11.2851 -10.8987 -10.8898
     2.2108   2.3214   2.9209   3.5500   3.7086   4.0029   4.4840   4.5023

     occupation numbers 
     1.0000   1.0000   1.0000   1.0000   1.0000   1.0000   1.0000   1.0000
     0.0000   0.0000   0.0000   0.0000   0.0000   0.0000   0.0000   0.0000

          k =-0.2500 0.1443 0.0000     band energies (ev):

   -23.9964 -23.9336 -13.8903 -13.8679 -11.7209 -11.7107 -10.9058 -10.3928
     1.6359   1.8716   2.1177   2.2065   3.9130   5.0784   6.8875   6.8965

     occupation numbers 
     1.0000   1.0000   1.0000   1.0000   1.0000   1.0000   1.0000   1.0000
     0.0000   0.0000   0.0000   0.0000   0.0000   0.0000   0.0000   0.0000

          k = 0.2500 0.1443 0.0000     band energies (ev):

   -23.9963 -23.9336 -13.8904 -13.8679 -11.7209 -11.7107 -10.9057 -10.3927
     1.6362   1.8716   2.1184   2.2065   3.9200   5.0635   6.8904   6.9090

     occupation numbers 
     1.0000   1.0000   1.0000   1.0000   1.0000   1.0000   1.0000   1.0000
     0.0000   0.0000   0.0000   0.0000   0.0000   0.0000   0.0000   0.0000

          k =-0.3333 0.1925 0.0000     band energies (ev):

   -22.9250 -22.8668 -15.9572 -15.9272 -12.4140 -12.4034  -9.6937  -9.2155
    -0.4966  -0.1786   1.9080   1.9993   5.3013   6.5571   9.4431   9.5630

     occupation numbers 
     1.0000   1.0000   1.0000   1.0000   1.0000   1.0000   1.0000   1.0000
     0.0000   0.0000   0.0000   0.0000   0.0000   0.0000   0.0000   0.0000

          k = 0.3333 0.1925 0.0000     band energies (ev):

   -22.9250 -22.8668 -15.9572 -15.9272 -12.4140 -12.4034  -9.6938  -9.2155
    -0.4977  -0.1788   1.9080   1.9992   5.2955   6.5748   7.5811   9.5633

     occupation numbers 
     1.0000   1.0000   1.0000   1.0000   1.0000   1.0000   1.0000   1.0000
     0.0000   0.0000   0.0000   0.0000   0.0000   0.0000   0.0000   0.0000

          k =-0.4167 0.2406 0.0000     band energies (ev):

   -21.5947 -21.5419 -17.9381 -17.9011 -12.8640 -12.8532  -8.3533  -7.9270
    -2.4739  -2.0704   1.7377   1.8291   7.0253   8.3601  10.4155  11.8847

     occupation numbers 
     1.0000   1.0000   1.0000   1.0000   1.0000   1.0000   1.0000   1.0000
     0.0000   0.0000   0.0000   0.0000   0.0000   0.0000   0.0000   0.0000

          k = 0.4167 0.2406 0.0000     band energies (ev):

   -21.5947 -21.5419 -17.9382 -17.9011 -12.8640 -12.8533  -8.3534  -7.9270
    -2.4752  -2.0704   1.7376   1.8290   7.0213   8.3445   9.0638  10.3902

     occupation numbers 
     1.0000   1.0000   1.0000   1.0000   1.0000   1.0000   1.0000   1.0000
     0.0000   0.0000   0.0000   0.0000   0.0000   0.0000   0.0000   0.0000

          k = 0.5000-0.2887 0.0000     band energies (ev):

   -20.4242 -20.3747 -19.3329 -19.2926 -13.0187 -13.0073  -7.5800  -7.1991
    -3.4732  -3.0130   1.6744   1.7669   8.8414   8.9651  10.1855  10.5107

     occupation numbers 
     1.0000   1.0000   1.0000   1.0000   1.0000   1.0000   1.0000   1.0000
     0.0000   0.0000   0.0000   0.0000   0.0000   0.0000   0.0000   0.0000

          k =-0.5000-0.2887 0.0000     band energies (ev):

   -20.4242 -20.3747 -19.3331 -19.2925 -13.0186 -13.0073  -7.5800  -7.1991
    -3.4738  -3.0126   1.6735   1.7679   8.8370   8.9231  10.2240  10.5140

     occupation numbers 
     1.0000   1.0000   1.0000   1.0000   1.0000   1.0000   1.0000   1.0000
     0.0000   0.0000   0.0000   0.0000   0.0000   0.0000   0.0000   0.0000

          k =-0.0833 0.1443 0.0000     band energies (ev):

   -24.9307 -24.8637 -12.0066 -11.4671 -11.3990 -11.3859 -10.7787 -10.7691
     2.3679   2.5755   2.8010   3.6234   3.6488   3.8004   3.9915   4.1374

     occupation numbers 
     1.0000   1.0000   1.0000   1.0000   1.0000   1.0000   1.0000   1.0000
     0.0000   0.0000   0.0000   0.0000   0.0000   0.0000   0.0000   0.0000

          k = 0.1667-0.0000 0.0000     band energies (ev):

   -24.9307 -24.8637 -12.0067 -11.4671 -11.3979 -11.3847 -10.7800 -10.7703
     2.3640   2.5742   2.7986   3.6253   3.6510   3.7956   3.9915   4.1377

     occupation numbers 
     1.0000   1.0000   1.0000   1.0000   1.0000   1.0000   1.0000   1.0000
     0.0000   0.0000   0.0000   0.0000   0.0000   0.0000   0.0000   0.0000

          k =-0.0833 0.2406 0.0000     band energies (ev):

   -24.3065 -24.2423 -12.9800 -12.9612 -11.6933 -11.6817 -11.2667 -10.7445
     2.3925   2.5905   2.7189   2.8482   3.5556   4.6063   5.1320   5.1686

     occupation numbers 
     1.0000   1.0000   1.0000   1.0000   1.0000   1.0000   1.0000   1.0000
     0.0000   0.0000   0.0000   0.0000   0.0000   0.0000   0.0000   0.0000

          k =-0.1667 0.1925 0.0000     band energies (ev):

   -24.3065 -24.2423 -12.9795 -12.9607 -11.6939 -11.6822 -11.2667 -10.7445
     2.3924   2.5909   2.7181   2.8474   3.5503   4.6442   5.1323   5.1706

     occupation numbers 
     1.0000   1.0000   1.0000   1.0000   1.0000   1.0000   1.0000   1.0000
     0.0000   0.0000   0.0000   0.0000   0.0000   0.0000   0.0000   0.0000

          k = 0.2500 0.0481 0.0000     band energies (ev):

   -24.3064 -24.2423 -12.9790 -12.9601 -11.6945 -11.6828 -11.2667 -10.7445
     2.3922   2.5911   2.7157   2.8473   3.5485   4.6430   5.1310   5.1732

     occupation numbers 
     1.0000   1.0000   1.0000   1.0000   1.0000   1.0000   1.0000   1.0000
     0.0000   0.0000   0.0000   0.0000   0.0000   0.0000   0.0000   0.0000

          k =-0.1667-0.1925 0.0000     band energies (ev):

   -24.3065 -24.2423 -12.9795 -12.9607 -11.6939 -11.6822 -11.2667 -10.7444
     2.3926   2.5906   2.7159   2.8477   3.5433   4.6452   5.1326   5.1706

     occupation numbers 
     1.0000   1.0000   1.0000   1.0000   1.0000   1.0000   1.0000   1.0000
     0.0000   0.0000   0.0000   0.0000   0.0000   0.0000   0.0000   0.0000

          k = 0.2500-0.0481 0.0000     band energies (ev):

   -24.3064 -24.2423 -12.9789 -12.9601 -11.6945 -11.6828 -11.2667 -10.7445
     2.3926   2.5913   2.7170   2.8467   3.5501   4.6338   5.1331   5.1709

     occupation numbers 
     1.0000   1.0000   1.0000   1.0000   1.0000   1.0000   1.0000   1.0000
     0.0000   0.0000   0.0000   0.0000   0.0000   0.0000   0.0000   0.0000

          k =-0.0833 0.3368 0.0000     band energies (ev):

   -23.3817 -23.3217 -14.9111 -14.8853 -12.5258 -12.5128 -10.1965  -9.7023
     0.4182   0.6845   2.6533   2.7490   4.7087   5.9186   7.2266   7.3111

     occupation numbers 
     1.0000   1.0000   1.0000   1.0000   1.0000   1.0000   1.0000   1.0000
     0.0000   0.0000   0.0000   0.0000   0.0000   0.0000   0.0000   0.0000

          k =-0.2500 0.2406 0.0000     band energies (ev):

   -23.3817 -23.3217 -14.9106 -14.8848 -12.5265 -12.5134 -10.1966  -9.7024
     0.4185   0.6848   2.6527   2.7490   4.7112   5.9093   7.2198   7.3128

     occupation numbers 
     1.0000   1.0000   1.0000   1.0000   1.0000   1.0000   1.0000   1.0000
     0.0000   0.0000   0.0000   0.0000   0.0000   0.0000   0.0000   0.0000

          k = 0.3333 0.0962 0.0000     band energies (ev):

   -23.3817 -23.3217 -14.9104 -14.8845 -12.5267 -12.5137 -10.1966  -9.7024
     0.4185   0.6854   2.6523   2.7487   4.7070   5.9128   7.2297   7.3134

     occupation numbers 
     1.0000   1.0000   1.0000   1.0000   1.0000   1.0000   1.0000   1.0000
     0.0000   0.0000   0.0000   0.0000   0.0000   0.0000   0.0000   0.0000

          k =-0.2500-0.2406 0.0000     band energies (ev):

   -23.3817 -23.3217 -14.9106 -14.8848 -12.5265 -12.5134 -10.1965  -9.7024
     0.4186   0.6849   2.6524   2.7490   4.7043   5.9101   7.2298   7.3138

     occupation numbers 
     1.0000   1.0000   1.0000   1.0000   1.0000   1.0000   1.0000   1.0000
     0.0000   0.0000   0.0000   0.0000   0.0000   0.0000   0.0000   0.0000

          k = 0.3333-0.0962 0.0000     band energies (ev):

   -23.3817 -23.3217 -14.9104 -14.8845 -12.5267 -12.5137 -10.1966  -9.7025
     0.4187   0.6854   2.6524   2.7488   4.7081   5.9188   7.2328   7.3157

     occupation numbers 
     1.0000   1.0000   1.0000   1.0000   1.0000   1.0000   1.0000   1.0000
     0.0000   0.0000   0.0000   0.0000   0.0000   0.0000   0.0000   0.0000

          k =-0.0833 0.4330 0.0000     band energies (ev):

   -22.1773 -22.1222 -16.9056 -16.8724 -13.1291 -13.1153  -8.8852  -8.4330
    -1.6271  -1.2818   2.4659   2.5655   6.2569   7.5561   9.2608   9.5397

     occupation numbers 
     1.0000   1.0000   1.0000   1.0000   1.0000   1.0000   1.0000   1.0000
     0.0000   0.0000   0.0000   0.0000   0.0000   0.0000   0.0000   0.0000

          k =-0.3333 0.2887 0.0000     band energies (ev):

   -22.1773 -22.1222 -16.9051 -16.8719 -13.1298 -13.1160  -8.8853  -8.4334
    -1.6265  -1.2813   2.4651   2.5648   6.2610   7.5210   9.2510   9.5414

     occupation numbers 
     1.0000   1.0000   1.0000   1.0000   1.0000   1.0000   1.0000   1.0000
     0.0000   0.0000   0.0000   0.0000   0.0000   0.0000   0.0000   0.0000

          k = 0.4167 0.1443 0.0000     band energies (ev):

   -22.1773 -22.1222 -16.9050 -16.8718 -13.1299 -13.1160  -8.8853  -8.4335
    -1.6263  -1.2810   2.4650   2.5652   6.2549   7.5551   9.2588   9.5443

     occupation numbers 
     1.0000   1.0000   1.0000   1.0000   1.0000   1.0000   1.0000   1.0000
     0.0000   0.0000   0.0000   0.0000   0.0000   0.0000   0.0000   0.0000

          k =-0.3333-0.2887 0.0000     band energies (ev):

   -22.1773 -22.1222 -16.9051 -16.8719 -13.1298 -13.1159  -8.8853  -8.4334
    -1.6267  -1.2812   2.4651   2.5656   6.2544   7.5656   9.2613   9.5443

     occupation numbers 
     1.0000   1.0000   1.0000   1.0000   1.0000   1.0000   1.0000   1.0000
     0.0000   0.0000   0.0000   0.0000   0.0000   0.0000   0.0000   0.0000

          k = 0.4167-0.1443 0.0000     band energies (ev):

   -22.1773 -22.1222 -16.9051 -16.8718 -13.1299 -13.1160  -8.8853  -8.4335
    -1.6264  -1.2810   2.4650   2.5653   6.2551   7.5574   9.2559   9.5457

     occupation numbers 
     1.0000   1.0000   1.0000   1.0000   1.0000   1.0000   1.0000   1.0000
     0.0000   0.0000   0.0000   0.0000   0.0000   0.0000   0.0000   0.0000

          k =-0.0833 0.5292 0.0000     band energies (ev):

   -20.7781 -20.7281 -18.7300 -18.6904 -13.4428 -13.4285  -7.6666  -7.2710
    -3.2555  -2.8302   2.3468   2.4472   8.0077   9.1821   9.4009   9.9502

     occupation numbers 
     1.0000   1.0000   1.0000   1.0000   1.0000   1.0000   1.0000   1.0000
     0.0000   0.0000   0.0000   0.0000   0.0000   0.0000   0.0000   0.0000

          k =-0.4167 0.3368 0.0000     band energies (ev):

   -20.7784 -20.7283 -18.7295 -18.6898 -13.4436 -13.4291  -7.6667  -7.2721
    -3.2541  -2.8295   2.3406   2.4466   8.0100   9.1639   9.3619   9.9324

     occupation numbers 
     1.0000   1.0000   1.0000   1.0000   1.0000   1.0000   1.0000   1.0000
     0.0000   0.0000   0.0000   0.0000   0.0000   0.0000   0.0000   0.0000

          k = 0.5000 0.1925 0.0000     band energies (ev):

   -20.7784 -20.7283 -18.7295 -18.6897 -13.4436 -13.4290  -7.6667  -7.2721
    -3.2536  -2.8293   2.3406   2.4474   8.0167   9.4045   9.5009  10.6894

     occupation numbers 
     1.0000   1.0000   1.0000   1.0000   1.0000   1.0000   1.0000   1.0000
     0.0000   0.0000   0.0000   0.0000   0.0000   0.0000   0.0000   0.0000

          k =-0.4167-0.3368 0.0000     band energies (ev):

   -20.7784 -20.7286 -18.7296 -18.6902 -13.4436 -13.4292  -7.6667  -7.2721
    -3.2541  -2.8295   2.3406   2.4389   8.0097   9.1620   9.3778   9.9294

     occupation numbers 
     1.0000   1.0000   1.0000   1.0000   1.0000   1.0000   1.0000   1.0000
     0.0000   0.0000   0.0000   0.0000   0.0000   0.0000   0.0000   0.0000

          k = 0.5000-0.1925 0.0000     band energies (ev):

   -20.7784 -20.7285 -18.7295 -18.6902 -13.4436 -13.4293  -7.6667  -7.2721
    -3.2542  -2.8294   2.3406   2.4388   8.0084   9.1699   9.3624   9.9493

     occupation numbers 
     1.0000   1.0000   1.0000   1.0000   1.0000   1.0000   1.0000   1.0000
     0.0000   0.0000   0.0000   0.0000   0.0000   0.0000   0.0000   0.0000

          k =-0.1667 0.2887 0.0000     band energies (ev):

   -23.5351 -23.4745 -14.2431 -14.2204 -12.9219 -12.9057 -10.3668  -9.8674
     0.7925   1.0281   3.8487   4.0524   4.6393   5.3414   5.4141   5.7017

     occupation numbers 
     1.0000   1.0000   1.0000   1.0000   1.0000   1.0000   1.0000   1.0000
     0.0000   0.0000   0.0000   0.0000   0.0000   0.0000   0.0000   0.0000

          k = 0.3333-0.0000 0.0000     band energies (ev):

   -23.5351 -23.4745 -14.2422 -14.2194 -12.9229 -12.9067 -10.3668  -9.8675
     0.7926   1.0289   3.8466   4.0503   4.6376   5.3438   5.4158   5.6760

     occupation numbers 
     1.0000   1.0000   1.0000   1.0000   1.0000   1.0000   1.0000   1.0000
     0.0000   0.0000   0.0000   0.0000   0.0000   0.0000   0.0000   0.0000

          k =-0.1667 0.3849 0.0000     band energies (ev):

   -22.4756 -22.4196 -15.8597 -15.8309 -13.9080 -13.8891  -9.1702  -8.7049
    -1.0292  -0.7446   4.2273   4.3588   5.8665   6.8733   6.9112   7.1828

     occupation numbers 
     1.0000   1.0000   1.0000   1.0000   1.0000   1.0000   1.0000   1.0000
     0.0000   0.0000   0.0000   0.0000   0.0000   0.0000   0.0000   0.0000

          k =-0.2500 0.3368 0.0000     band energies (ev):
[...]
     0.0000   0.0000   0.0000   0.0000   0.0000   0.0000   0.0000   0.0000

          k =-0.3333 0.2887 0.0000 (  3041 PWs)   bands (ev):

   -16.6527 -16.5656 -11.1377 -11.0843  -7.0892  -7.0665  -4.5840  -3.9211
     2.9498   3.4879   7.4297   7.7772   7.8193   7.9879   8.7334   9.8403

     occupation numbers 
     1.0000   1.0000   1.0000   1.0000   1.0000   1.0000   1.0000   1.0000
     0.0000   0.0000   0.0000   0.0000   0.0000   0.0000   0.0000   0.0000

          k = 0.4167 0.1443 0.0000 (  3041 PWs)   bands (ev):

   -16.6527 -16.5656 -11.1377 -11.0842  -7.0893  -7.0666  -4.5840  -3.9212
     2.9497   3.4882   7.4296   7.7767   7.8196   7.9880   8.7334   9.8404

     occupation numbers 
     1.0000   1.0000   1.0000   1.0000   1.0000   1.0000   1.0000   1.0000
     0.0000   0.0000   0.0000   0.0000   0.0000   0.0000   0.0000   0.0000

          k =-0.3333-0.2887 0.0000 (  3041 PWs)   bands (ev):

   -16.6527 -16.5656 -11.1377 -11.0843  -7.0892  -7.0665  -4.5840  -3.9211
     2.9498   3.4879   7.4297   7.7772   7.8193   7.9879   8.7334   9.8403

     occupation numbers 
     1.0000   1.0000   1.0000   1.0000   1.0000   1.0000   1.0000   1.0000
     0.0000   0.0000   0.0000   0.0000   0.0000   0.0000   0.0000   0.0000

          k = 0.4167-0.1443 0.0000 (  3041 PWs)   bands (ev):

   -16.6527 -16.5656 -11.1377 -11.0842  -7.0893  -7.0666  -4.5840  -3.9212
     2.9497   3.4882   7.4296   7.7767   7.8196   7.9880   8.7334   9.8404

     occupation numbers 
     1.0000   1.0000   1.0000   1.0000   1.0000   1.0000   1.0000   1.0000
     0.0000   0.0000   0.0000   0.0000   0.0000   0.0000   0.0000   0.0000

          k =-0.0833 0.5292 0.0000 (  3043 PWs)   bands (ev):

   -15.1742 -15.0949 -13.0767 -13.0135  -7.4158  -7.3927  -3.2422  -2.6592
     1.1319   1.7877   7.5358   7.6906   9.6403  10.1199  10.9266  11.5409

     occupation numbers 
     1.0000   1.0000   1.0000   1.0000   1.0000   1.0000   1.0000   1.0000
     0.0000   0.0000   0.0000   0.0000   0.0000   0.0000   0.0000   0.0000

          k =-0.4167 0.3368 0.0000 (  3043 PWs)   bands (ev):

   -15.1743 -15.0951 -13.0762 -13.0131  -7.4164  -7.3932  -3.2420  -2.6605
     1.1334   1.7879   7.5348   7.6911   9.6403  10.1200  10.9266  11.5405

     occupation numbers 
     1.0000   1.0000   1.0000   1.0000   1.0000   1.0000   1.0000   1.0000
     0.0000   0.0000   0.0000   0.0000   0.0000   0.0000   0.0000   0.0000

          k = 0.5000 0.1925 0.0000 (  3043 PWs)   bands (ev):

   -15.1743 -15.0951 -13.0762 -13.0131  -7.4164  -7.3932  -3.2420  -2.6606
     1.1334   1.7881   7.5348   7.6911   9.6403  10.1198  10.9266  11.5410

     occupation numbers 
     1.0000   1.0000   1.0000   1.0000   1.0000   1.0000   1.0000   1.0000
     0.0000   0.0000   0.0000   0.0000   0.0000   0.0000   0.0000   0.0000

          k =-0.4167-0.3368 0.0000 (  3043 PWs)   bands (ev):

   -15.1743 -15.0951 -13.0762 -13.0131  -7.4164  -7.3932  -3.2420  -2.6605
     1.1334   1.7879   7.5348   7.6911   9.6403  10.1200  10.9266  11.5405

     occupation numbers 
     1.0000   1.0000   1.0000   1.0000   1.0000   1.0000   1.0000   1.0000
     0.0000   0.0000   0.0000   0.0000   0.0000   0.0000   0.0000   0.0000

          k = 0.5000-0.1925 0.0000 (  3043 PWs)   bands (ev):

   -15.1743 -15.0951 -13.0762 -13.0131  -7.4164  -7.3932  -3.2420  -2.6606
     1.1334   1.7881   7.5348   7.6911   9.6403  10.1198  10.9266  11.5409

     occupation numbers 
     1.0000   1.0000   1.0000   1.0000   1.0000   1.0000   1.0000   1.0000
     0.0000   0.0000   0.0000   0.0000   0.0000   0.0000   0.0000   0.0000

          k =-0.1667 0.2887 0.0000 (  3039 PWs)   bands (ev):

   -18.0734 -17.9777  -8.2772  -8.2403  -6.9314  -6.9044  -6.1646  -5.4402
     5.5364   5.6758   5.9592   6.0400   6.7010   7.8899   7.9816   9.4484

     occupation numbers 
     1.0000   1.0000   1.0000   1.0000   1.0000   1.0000   1.0000   1.0000
     0.0000   0.0000   0.0000   0.0000   0.0000   0.0000   0.0000   0.0000

          k = 0.3333-0.0000 0.0000 (  3039 PWs)   bands (ev):

   -18.0734 -17.9776  -8.2765  -8.2395  -6.9323  -6.9052  -6.1646  -5.4404
     5.5364   5.6756   5.9592   6.0411   6.7010   7.8898   7.9815   9.4461

     occupation numbers 
     1.0000   1.0000   1.0000   1.0000   1.0000   1.0000   1.0000   1.0000
     0.0000   0.0000   0.0000   0.0000   0.0000   0.0000   0.0000   0.0000

          k =-0.1667 0.3849 0.0000 (  3045 PWs)   bands (ev):

   -16.9653 -16.8765 -10.0015  -9.9549  -7.9843  -7.9529  -4.8962  -4.2155
     3.7017   4.1396   7.0597   7.4926   8.2688   9.3033   9.4283   9.6582

     occupation numbers 
     1.0000   1.0000   1.0000   1.0000   1.0000   1.0000   1.0000   1.0000
     0.0000   0.0000   0.0000   0.0000   0.0000   0.0000   0.0000   0.0000

          k =-0.2500 0.3368 0.0000 (  3045 PWs)   bands (ev):

   -16.9653 -16.8765 -10.0012  -9.9546  -7.9847  -7.9532  -4.8962  -4.2156
     3.7019   4.1398   7.0597   7.4926   8.2688   9.3033   9.4284   9.6573

     occupation numbers 
     1.0000   1.0000   1.0000   1.0000   1.0000   1.0000   1.0000   1.0000
     0.0000   0.0000   0.0000   0.0000   0.0000   0.0000   0.0000   0.0000

          k = 0.4167 0.0481 0.0000 (  3045 PWs)   bands (ev):

   -16.9653 -16.8765 -10.0009  -9.9543  -7.9851  -7.9536  -4.8963  -4.2157
     3.7016   4.1408   7.0597   7.4925   8.2688   9.3031   9.4281   9.6569

     occupation numbers 
     1.0000   1.0000   1.0000   1.0000   1.0000   1.0000   1.0000   1.0000
     0.0000   0.0000   0.0000   0.0000   0.0000   0.0000   0.0000   0.0000

          k =-0.2500-0.3368 0.0000 (  3045 PWs)   bands (ev):

   -16.9653 -16.8765 -10.0012  -9.9546  -7.9847  -7.9532  -4.8962  -4.2156
     3.7019   4.1397   7.0597   7.4926   8.2688   9.3033   9.4282   9.6573

     occupation numbers 
     1.0000   1.0000   1.0000   1.0000   1.0000   1.0000   1.0000   1.0000
     0.0000   0.0000   0.0000   0.0000   0.0000   0.0000   0.0000   0.0000

          k = 0.4167-0.0481 0.0000 (  3045 PWs)   bands (ev):

   -16.9653 -16.8765 -10.0009  -9.9543  -7.9851  -7.9536  -4.8963  -4.2157
     3.7016   4.1408   7.0597   7.4925   8.2688   9.3031   9.4281   9.6569

     occupation numbers 
     1.0000   1.0000   1.0000   1.0000   1.0000   1.0000   1.0000   1.0000
     0.0000   0.0000   0.0000   0.0000   0.0000   0.0000   0.0000   0.0000

          k =-0.1667 0.4811 0.0000 (  3041 PWs)   bands (ev):

   -15.5897 -15.5090 -11.9095 -11.8523  -8.5585  -8.5252  -3.4446  -2.8290
     1.7516   2.2857   8.9528   9.4043   9.4320   9.6009  10.1981  10.6124

     occupation numbers 
     1.0000   1.0000   1.0000   1.0000   1.0000   1.0000   1.0000   1.0000
     0.0000   0.0000   0.0000   0.0000   0.0000   0.0000   0.0000   0.0000

          k =-0.3333 0.3849 0.0000 (  3041 PWs)   bands (ev):

   -15.5897 -15.5090 -11.9091 -11.8520  -8.5590  -8.5256  -3.4446  -2.8296
     1.7523   2.2860   8.9527   9.4065   9.4292   9.6013  10.1977  10.6120

     occupation numbers 
     1.0000   1.0000   1.0000   1.0000   1.0000   1.0000   1.0000   1.0000
     0.0000   0.0000   0.0000   0.0000   0.0000   0.0000   0.0000   0.0000

          k = 0.5000 0.0962 0.0000 (  3041 PWs)   bands (ev):

   -15.5897 -15.5090 -11.9090 -11.8518  -8.5591  -8.5258  -3.4447  -2.8297
     1.7521   2.2868   8.9527   9.4032   9.4319   9.6011  10.1981  10.6126

     occupation numbers 
     1.0000   1.0000   1.0000   1.0000   1.0000   1.0000   1.0000   1.0000
     0.0000   0.0000   0.0000   0.0000   0.0000   0.0000   0.0000   0.0000

          k =-0.3333-0.3849 0.0000 (  3041 PWs)   bands (ev):

   -15.5897 -15.5090 -11.9091 -11.8520  -8.5590  -8.5256  -3.4446  -2.8296
     1.7523   2.2860   8.9527   9.4064   9.4292   9.6013  10.1977  10.6120

     occupation numbers 
     1.0000   1.0000   1.0000   1.0000   1.0000   1.0000   1.0000   1.0000
     0.0000   0.0000   0.0000   0.0000   0.0000   0.0000   0.0000   0.0000

          k = 0.5000-0.0962 0.0000 (  3041 PWs)   bands (ev):

   -15.5897 -15.5090 -11.9090 -11.8518  -8.5591  -8.5258  -3.4447  -2.8297
     1.7521   2.2868   8.9527   9.4032   9.4319   9.6011  10.1981  10.6126

     occupation numbers 
     1.0000   1.0000   1.0000   1.0000   1.0000   1.0000   1.0000   1.0000
     0.0000   0.0000   0.0000   0.0000   0.0000   0.0000   0.0000   0.0000

          k =-0.4167 0.4330 0.0000 (  3008 PWs)   bands (ev):

   -14.3578 -14.2823 -13.3404 -13.2774  -8.7433  -8.7094  -2.5251  -1.9749
     0.6528   1.2625   9.2914   9.5112  10.7515  11.0852  11.3269  11.3523

     occupation numbers 
     1.0000   1.0000   1.0000   1.0000   1.0000   1.0000   1.0000   1.0000
     0.0000   0.0000   0.0000   0.0000   0.0000   0.0000   0.0000   0.0000

          k = 0.5833 0.1443 0.0000 (  3008 PWs)   bands (ev):

   -14.3578 -14.2823 -13.3404 -13.2774  -8.7433  -8.7094  -2.5251  -1.9749
     0.6528   1.2625   9.2914   9.5112  10.7515  11.0852  11.3269  11.3523

     occupation numbers 
     1.0000   1.0000   1.0000   1.0000   1.0000   1.0000   1.0000   1.0000
     0.0000   0.0000   0.0000   0.0000   0.0000   0.0000   0.0000   0.0000

          k =-0.2500 0.4330 0.0000 (  3033 PWs)   bands (ev):

   -15.7372 -15.6559 -11.0356 -10.9833  -9.4640  -9.4243  -3.5344  -2.9060
     2.0819   2.5445   8.7661   9.1626   9.8644  10.2358  11.1271  11.3809

     occupation numbers 
     1.0000   1.0000   1.0000   1.0000   1.0000   1.0000   1.0000   1.0000
     0.0000   0.0000   0.0000   0.0000   0.0000   0.0000   0.0000   0.0000

          k = 0.5000 0.0000 0.0000 (  3033 PWs)   bands (ev):

   -15.7372 -15.6559 -11.0352 -10.9826  -9.4647  -9.4248  -3.5345  -2.9063
     2.0816   2.5460   8.7661   9.1621   9.8648  10.2360  11.1261  11.3801

     occupation numbers 
     1.0000   1.0000   1.0000   1.0000   1.0000   1.0000   1.0000   1.0000
     0.0000   0.0000   0.0000   0.0000   0.0000   0.0000   0.0000   0.0000

          k =-0.2500 0.5292 0.0000 (  3013 PWs)   bands (ev):

   -14.3158 -14.2424 -12.4553 -12.3948 -10.1700 -10.1267  -2.1227  -1.5607
     0.5426   1.0578   9.7433  10.7481  10.8339  11.4735  11.8093  12.2750

     occupation numbers 
     1.0000   1.0000   1.0000   1.0000   1.0000   1.0000   1.0000   1.0000
     0.0000   0.0000   0.0000   0.0000   0.0000   0.0000   0.0000   0.0000

          k =-0.3333 0.4811 0.0000 (  3013 PWs)   bands (ev):

   -14.3159 -14.2425 -12.4549 -12.3944 -10.1703 -10.1271  -2.1226  -1.5616
     0.5431   1.0583   9.7431  10.7484  10.8338  11.4726  11.8089  12.2754

     occupation numbers 
     1.0000   1.0000   1.0000   1.0000   1.0000   1.0000   1.0000   1.0000
     0.0000   0.0000   0.0000   0.0000   0.0000   0.0000   0.0000   0.0000

          k = 0.5833 0.0481 0.0000 (  3013 PWs)   bands (ev):

   -14.3159 -14.2425 -12.4548 -12.3942 -10.1705 -10.1272  -2.1227  -1.5618
     0.5427   1.0593   9.7427  10.7474  10.8351  11.4728  11.8092  12.2747

     occupation numbers 
     1.0000   1.0000   1.0000   1.0000   1.0000   1.0000   1.0000   1.0000
     0.0000   0.0000   0.0000   0.0000   0.0000   0.0000   0.0000   0.0000

          k =-0.3333-0.4811 0.0000 (  3013 PWs)   bands (ev):

   -14.3159 -14.2425 -12.4549 -12.3944 -10.1703 -10.1271  -2.1226  -1.5616
     0.5431   1.0583   9.7431  10.7484  10.8338  11.4726  11.8089  12.2750

     occupation numbers 
     1.0000   1.0000   1.0000   1.0000   1.0000   1.0000   1.0000   1.0000
     0.0000   0.0000   0.0000   0.0000   0.0000   0.0000   0.0000   0.0000

          k = 0.5833-0.0481 0.0000 (  3013 PWs)   bands (ev):

   -14.3159 -14.2425 -12.4548 -12.3942 -10.1705 -10.1272  -2.1227  -1.5618
     0.5427   1.0593   9.7427  10.7474  10.8351  11.4728  11.8092  12.2751

     occupation numbers 
     1.0000   1.0000   1.0000   1.0000   1.0000   1.0000   1.0000   1.0000
     0.0000   0.0000   0.0000   0.0000   0.0000   0.0000   0.0000   0.0000

     the Fermi energy is    -0.3471 ev

!    total energy              =     -45.57851985 Ry
     Harris-Foulkes estimate   =     -45.57851984 Ry
     estimated scf accuracy    <          3.0E-11 Ry

     The total energy is the sum of the following terms:

     one-electron contribution =    -522.15146115 Ry
     hartree contribution      =     264.54943730 Ry
     xc contribution           =     -14.03075732 Ry
     ewald contribution        =     226.05426131 Ry
     smearing contrib. (-TS)   =       0.00000000 Ry

     total magnetization       =     0.00 Bohr mag/cell
     absolute magnetization    =     0.00 Bohr mag/cell

     convergence has been achieved in  13 iterations

     Forces acting on atoms (Ry/au):

     atom    1 type  1   force =     0.00004961   -0.00011505   -0.00202286
     atom    2 type  1   force =     0.00004963    0.00011505   -0.00202286
     atom    3 type  1   force =    -0.00004963   -0.00011569    0.00202286
     atom    4 type  1   force =    -0.00004961    0.00011569    0.00202287
     The non-local contrib.  to forces
     atom    1 type  1   force =     0.00002536   -0.00003790   -0.00127814
     atom    2 type  1   force =     0.00002539    0.00003791   -0.00127813
     atom    3 type  1   force =    -0.00003075   -0.00003856    0.00127716
     atom    4 type  1   force =    -0.00003072    0.00003858    0.00127716
     The ionic contribution  to forces
     atom    1 type  1   force =     0.00010757   -0.00036415  -13.88351527
     atom    2 type  1   force =     0.00010757    0.00036415  -13.88351527
     atom    3 type  1   force =    -0.00010757   -0.00036415   13.88351527
     atom    4 type  1   force =    -0.00010757    0.00036415   13.88351527
     The local contribution  to forces
     atom    1 type  1   force =    -0.00008611    0.00028711   13.88277991
     atom    2 type  1   force =    -0.00008595   -0.00028713   13.88277991
     atom    3 type  1   force =     0.00008586    0.00028714  -13.88278105
     atom    4 type  1   force =     0.00008613   -0.00028713  -13.88278102
     The core correction contribution to forces
     atom    1 type  1   force =     0.00000000    0.00000000    0.00000000
     atom    2 type  1   force =     0.00000000    0.00000000    0.00000000
     atom    3 type  1   force =     0.00000000    0.00000000    0.00000000
     atom    4 type  1   force =     0.00000000    0.00000000    0.00000000
     The Hubbard contrib.    to forces
     atom    1 type  1   force =     0.00000000    0.00000000    0.00000000
     atom    2 type  1   force =     0.00000000    0.00000000    0.00000000
     atom    3 type  1   force =     0.00000000    0.00000000    0.00000000
     atom    4 type  1   force =     0.00000000    0.00000000    0.00000000
     The SCF correction term to forces
     atom    1 type  1   force =     0.00000009   -0.00000010   -0.00000984
     atom    2 type  1   force =    -0.00000007    0.00000013   -0.00000984
     atom    3 type  1   force =     0.00000014   -0.00000012    0.00001101
     atom    4 type  1   force =    -0.00000013    0.00000010    0.00001099

     Total force =     0.004054     Total SCF correction =     0.000021


     entering subroutine stress ...

          total   stress  (Ry/bohr**3)                   (kbar)     P=   -4.95
  -0.00006619  -0.00000000  -0.00000087         -9.74     -0.00     -0.13
  -0.00000000  -0.00006594   0.00000000         -0.00     -9.70      0.00
  -0.00000087   0.00000000   0.00003122         -0.13      0.00      4.59

     kinetic stress (kbar)   3525.17     -0.00     -0.15
                               -0.00   3525.05      0.00
                               -0.15      0.00   4088.44

     local   stress (kbar)-111729.78     -0.00      0.49
                               -0.00-111730.43     -0.00
                                0.49     -0.00 114050.73

     nonloc. stress (kbar)   -152.54     -0.00      0.01
                               -0.00   -152.53     -0.00
                                0.01     -0.00   -151.53

     hartree stress (kbar)  54343.99      0.00     -0.18
                                0.00  54344.08      0.00
                               -0.18      0.00 -53999.31

     exc-cor stress (kbar)   -891.25     -0.00     -0.00
                               -0.00   -891.24     -0.00
                               -0.00     -0.00   -924.58

     corecor stress (kbar)      0.00      0.00      0.00
                                0.00      0.00      0.00
                                0.00      0.00      0.00

     ewald   stress (kbar)  54894.67      0.00     -0.29
                                0.00  54895.37      0.00
                               -0.29      0.00 -63059.16

     hubbard stress (kbar)      0.00      0.00      0.00
                                0.00      0.00      0.00
                                0.00      0.00      0.00

     london  stress (kbar)      0.00      0.00      0.00
                                0.00      0.00      0.00
                                0.00      0.00      0.00

     XDM     stress (kbar)      0.00      0.00      0.00
                                0.00      0.00      0.00
                                0.00      0.00      0.00

     dft-nl  stress (kbar)      0.00      0.00      0.00
                                0.00      0.00      0.00
                                0.00      0.00      0.00



     Writing output data file g.dos1.save

     init_run     :      8.83s CPU      8.94s WALL (       1 calls)
     electrons    :    303.76s CPU    305.04s WALL (       1 calls)
     forces       :      4.80s CPU      4.82s WALL (       1 calls)
     stress       :     11.23s CPU     11.26s WALL (       1 calls)

     Called by init_run:
     wfcinit      :      6.92s CPU      6.99s WALL (       1 calls)
     potinit      :      0.82s CPU      0.85s WALL (       1 calls)

     Called by electrons:
     c_bands      :    249.55s CPU    250.59s WALL (      13 calls)
     sum_band     :     40.30s CPU     40.51s WALL (      13 calls)
     v_of_rho     :      8.90s CPU      8.93s WALL (      14 calls)
     v_h          :      0.17s CPU      0.17s WALL (      14 calls)
     v_xc         :      8.73s CPU      8.77s WALL (      14 calls)
     newd         :      4.74s CPU      4.74s WALL (      14 calls)
     mix_rho      :      0.70s CPU      0.71s WALL (      13 calls)

     Called by c_bands:
     init_us_2    :      4.89s CPU      4.92s WALL (    4292 calls)
     cegterg      :    241.52s CPU    242.48s WALL (    1924 calls)

     Called by sum_band:
     sum_band:bec :      0.04s CPU      0.04s WALL (    1924 calls)
     addusdens    :      4.96s CPU      4.97s WALL (      13 calls)

     Called by *egterg:
     h_psi        :    146.98s CPU    147.91s WALL (    7464 calls)
     s_psi        :     21.35s CPU     21.38s WALL (    7464 calls)
     g_psi        :      0.96s CPU      0.96s WALL (    5392 calls)
     cdiaghg      :      6.35s CPU      6.36s WALL (    7316 calls)
     cegterg:over :     28.52s CPU     28.54s WALL (    5392 calls)
     cegterg:upda :     17.55s CPU     17.57s WALL (    5392 calls)
     cegterg:last :     11.57s CPU     11.59s WALL (    1971 calls)

     Called by h_psi:
     h_psi:vloc   :    101.33s CPU    102.13s WALL (    7464 calls)
     h_psi:vnl    :     44.85s CPU     44.98s WALL (    7464 calls)
     add_vuspsi   :     21.52s CPU     21.55s WALL (    7464 calls)

     General routines
     calbec       :     33.94s CPU     34.07s WALL (    9684 calls)
     fft          :      4.33s CPU      4.35s WALL (     437 calls)
     ffts         :      0.04s CPU      0.04s WALL (      54 calls)
     fftw         :     84.99s CPU     85.65s WALL (  183302 calls)
     interpolate  :      0.64s CPU      0.64s WALL (      54 calls)

     Parallel routines
     fft_scatter  :     15.45s CPU     15.56s WALL (  183793 calls)

     PWSCF        :  5m29.32s CPU     5m30.92s WALL


   This run was terminated on:   6:52:16   1May2020            

=------------------------------------------------------------------------------=
   JOB DONE.
=------------------------------------------------------------------------------=
