
     Program BANDS v.5.1 starts on  4Apr2020 at 17:25:45 

     This program is part of the open-source Quantum ESPRESSO suite
     for quantum simulation of materials; please cite
         "P. Giannozzi et al., J. Phys.:Condens. Matter 21 395502 (2009);
          URL http://www.quantum-espresso.org", 
     in publications or presentations arising from this work. More details at
     http://www.quantum-espresso.org/quote

     Parallel version (MPI), running on     1 processors

   Info: using nr1, nr2, nr3 values from input

   Info: using nr1s, nr2s, nr3s values from input

     IMPORTANT: XC functional enforced from input :
     Exchange-correlation      = PBE ( 1  4  3  4 0)
     Any further DFT definition will be discarded
     Please, verify this is what you really want

               file C.pbe-rrkjus.UPF: wavefunction(s)  2S 2P renormalized

     G-vector sticks info
     --------------------
     sticks:   dense  smooth     PW     G-vecs:    dense   smooth      PW
     Sum         595     241     85                96043    24369    4587


     negative rho (up, down):  1.384E-06 0.000E+00

 **************************************************************************

                    xk=(  -0.33333,   0.57735,   0.00000  )

     point group C_1 (1)    
     there are  1 classes
     the character table:

       E    
A      1.00

     the symmetry operations in each class:
     E        1

     Band symmetry, C_1 (1)     point group:

     e(  1 -  1) =    -13.09723  eV     1   --> A              
     e(  2 -  2) =    -13.09667  eV     1   --> A              
     e(  3 -  3) =    -13.03436  eV     1   --> A              
     e(  4 -  4) =    -13.03380  eV     1   --> A              
     e(  5 -  5) =    -11.06115  eV     1   --> A              
     e(  6 -  6) =    -11.01656  eV     1   --> A              
     e(  7 -  7) =     -0.74371  eV     1   --> A              
     e(  8 -  8) =     -0.74301  eV     1   --> A              
     e(  9 -  9) =     -0.23956  eV     1   --> A              
     e( 10 - 10) =     -0.23882  eV     1   --> A              
     e( 11 - 11) =      9.31009  eV     1   --> A              
     e( 12 - 12) =     10.99099  eV     1   --> A              
     e( 13 - 13) =     12.03897  eV     1   --> A              
     e( 14 - 14) =     12.03957  eV     1   --> A              
     e( 15 - 15) =     12.80779  eV     1   --> A              
     e( 16 - 16) =     13.10993  eV     1   --> A              
     e( 17 - 17) =     13.11061  eV     1   --> A              
     e( 18 - 18) =     14.52982  eV     1   --> A              
     e( 19 - 19) =     14.52996  eV     1   --> A              
     e( 20 - 20) =     14.82095  eV     1   --> A              
     e( 21 - 21) =     14.82142  eV     1   --> A              
     e( 22 - 22) =     14.84791  eV     1   --> A              
     e( 23 - 23) =     14.96856  eV     1   --> A              
     e( 24 - 24) =     15.36270  eV     1   --> A              
     e( 25 - 25) =     15.36283  eV     1   --> A              
     e( 26 - 26) =     15.82895  eV     1   --> A              
     e( 27 - 27) =     16.19620  eV     1   --> A              
     e( 28 - 28) =     16.36650  eV     1   --> A              
     e( 29 - 29) =     16.36667  eV     1   --> A              
     e( 30 - 30) =     17.22508  eV     1   --> A              
     e( 31 - 31) =     17.22573  eV     1   --> A              
     e( 32 - 32) =     17.34327  eV     1   --> A              

 **************************************************************************

 **************************************************************************

                    xk=(  -0.32667,   0.56580,   0.00000  )

     Band symmetry, C_1 (1)     point group:

     e(  1 -  1) =    -13.24692  eV     1   --> A              
     e(  2 -  2) =    -13.18311  eV     1   --> A              
     e(  3 -  3) =    -12.96094  eV     1   --> A              
     e(  4 -  4) =    -12.89897  eV     1   --> A              
     e(  5 -  5) =    -11.04084  eV     1   --> A              
     e(  6 -  6) =    -10.99625  eV     1   --> A              
     e(  7 -  7) =     -0.93461  eV     1   --> A              
     e(  8 -  8) =     -0.55357  eV     1   --> A              
     e(  9 -  9) =     -0.42637  eV     1   --> A              
     e( 10 - 10) =     -0.05281  eV     1   --> A              
     e( 11 - 11) =      9.31917  eV     1   --> A              
     e( 12 - 12) =     10.99257  eV     1   --> A              
     e( 13 - 13) =     11.95830  eV     1   --> A              
     e( 14 - 14) =     12.08281  eV     1   --> A              
     e( 15 - 15) =     12.78965  eV     1   --> A              
     e( 16 - 16) =     13.04710  eV     1   --> A              
     e( 17 - 17) =     13.12366  eV     1   --> A              
     e( 18 - 18) =     14.26020  eV     1   --> A              
     e( 19 - 19) =     14.56375  eV     1   --> A              
     e( 20 - 20) =     14.71488  eV     1   --> A              
     e( 21 - 21) =     14.85808  eV     1   --> A              
     e( 22 - 22) =     14.92359  eV     1   --> A              
     e( 23 - 23) =     15.15078  eV     1   --> A              
     e( 24 - 24) =     15.24744  eV     1   --> A              
     e( 25 - 25) =     15.55268  eV     1   --> A              
     e( 26 - 26) =     15.69940  eV     1   --> A              
     e( 27 - 27) =     16.18992  eV     1   --> A              
     e( 28 - 28) =     16.32047  eV     1   --> A              
     e( 29 - 29) =     16.55155  eV     1   --> A              
     e( 30 - 30) =     17.23050  eV     1   --> A              
     e( 31 - 31) =     17.28669  eV     1   --> A              
     e( 32 - 32) =     17.35483  eV     1   --> A              

 **************************************************************************

 **************************************************************************

                    xk=(  -0.32000,   0.55426,   0.00000  )

     Band symmetry, C_1 (1)     point group:

     e(  1 -  1) =    -13.42467  eV     1   --> A              
     e(  2 -  2) =    -13.35984  eV     1   --> A              
     e(  3 -  3) =    -12.81963  eV     1   --> A              
     e(  4 -  4) =    -12.75857  eV     1   --> A              
     e(  5 -  5) =    -10.98535  eV     1   --> A              
     e(  6 -  6) =    -10.94083  eV     1   --> A              
     e(  7 -  7) =     -1.13517  eV     1   --> A              
     e(  8 -  8) =     -0.62146  eV     1   --> A              
     e(  9 -  9) =     -0.35684  eV     1   --> A              
     e( 10 - 10) =      0.14036  eV     1   --> A              
     e( 11 - 11) =      9.34548  eV     1   --> A              
     e( 12 - 12) =     10.99374  eV     1   --> A              
     e( 13 - 13) =     11.81170  eV     1   --> A              
     e( 14 - 14) =     12.11612  eV     1   --> A              
     e( 15 - 15) =     12.74425  eV     1   --> A              
     e( 16 - 16) =     12.92222  eV     1   --> A              
     e( 17 - 17) =     13.11188  eV     1   --> A              
     e( 18 - 18) =     13.92217  eV     1   --> A              
     e( 19 - 19) =     14.28029  eV     1   --> A              
     e( 20 - 20) =     14.74185  eV     1   --> A              
     e( 21 - 21) =     14.90623  eV     1   --> A              
     e( 22 - 22) =     15.05363  eV     1   --> A              
     e( 23 - 23) =     15.30790  eV     1   --> A              
     e( 24 - 24) =     15.36552  eV     1   --> A              
     e( 25 - 25) =     15.42078  eV     1   --> A              
     e( 26 - 26) =     15.75225  eV     1   --> A              
     e( 27 - 27) =     16.18040  eV     1   --> A              
     e( 28 - 28) =     16.43740  eV     1   --> A              
     e( 29 - 29) =     16.75206  eV     1   --> A              
     e( 30 - 30) =     17.28992  eV     1   --> A              
     e( 31 - 31) =     17.36180  eV     1   --> A              
     e( 32 - 32) =     17.36570  eV     1   --> A              

 **************************************************************************

 **************************************************************************

                    xk=(  -0.31333,   0.54271,   0.00000  )

     Band symmetry, C_1 (1)     point group:

     e(  1 -  1) =    -13.62222  eV     1   --> A              
     e(  2 -  2) =    -13.55629  eV     1   --> A              
     e(  3 -  3) =    -12.67317  eV     1   --> A              
     e(  4 -  4) =    -12.61309  eV     1   --> A              
     e(  5 -  5) =    -10.90215  eV     1   --> A              
     e(  6 -  6) =    -10.85792  eV     1   --> A              
     e(  7 -  7) =     -1.34375  eV     1   --> A              
     e(  8 -  8) =     -0.82338  eV     1   --> A              
     e(  9 -  9) =     -0.15340  eV     1   --> A              
     e( 10 - 10) =      0.34007  eV     1   --> A              
     e( 11 - 11) =      9.38746  eV     1   --> A              
     e( 12 - 12) =     10.98679  eV     1   --> A              
     e( 13 - 13) =     11.60718  eV     1   --> A              
     e( 14 - 14) =     12.13865  eV     1   --> A              
     e( 15 - 15) =     12.67870  eV     1   --> A              
     e( 16 - 16) =     12.75773  eV     1   --> A              
     e( 17 - 17) =     13.07815  eV     1   --> A              
     e( 18 - 18) =     13.56531  eV     1   --> A              
     e( 19 - 19) =     14.01066  eV     1   --> A              
     e( 20 - 20) =     14.54156  eV     1   --> A              
     e( 21 - 21) =     15.07125  eV     1   --> A              
     e( 22 - 22) =     15.10418  eV     1   --> A              
     e( 23 - 23) =     15.20979  eV     1   --> A              
     e( 24 - 24) =     15.44190  eV     1   --> A              
     e( 25 - 25) =     15.62101  eV     1   --> A              
     e( 26 - 26) =     15.96160  eV     1   --> A              
     e( 27 - 27) =     16.19147  eV     1   --> A              
     e( 28 - 28) =     16.55167  eV     1   --> A              
     e( 29 - 29) =     16.96612  eV     1   --> A              
     e( 30 - 30) =     17.03757  eV     1   --> A              
     e( 31 - 31) =     17.39995  eV     1   --> A              
     e( 32 - 32) =     17.46246  eV     1   --> A              

 **************************************************************************

 **************************************************************************

                    xk=(  -0.30667,   0.53116,   0.00000  )

     Band symmetry, C_1 (1)     point group:

     e(  1 -  1) =    -13.83308  eV     1   --> A              
     e(  2 -  2) =    -13.76602  eV     1   --> A              
     e(  3 -  3) =    -12.52159  eV     1   --> A              
     e(  4 -  4) =    -12.46251  eV     1   --> A              
     e(  5 -  5) =    -10.79754  eV     1   --> A              
     e(  6 -  6) =    -10.75369  eV     1   --> A              
     e(  7 -  7) =     -1.55925  eV     1   --> A              
     e(  8 -  8) =     -1.03125  eV     1   --> A              
     e(  9 -  9) =      0.05664  eV     1   --> A              
     e( 10 - 10) =      0.54621  eV     1   --> A              
     e( 11 - 11) =      9.44316  eV     1   --> A              
     e( 12 - 12) =     10.96009  eV     1   --> A              
     e( 13 - 13) =     11.35895  eV     1   --> A              
     e( 14 - 14) =     12.15024  eV     1   --> A              
     e( 15 - 15) =     12.57976  eV     1   --> A              
     e( 16 - 16) =     12.59053  eV     1   --> A              
     e( 17 - 17) =     13.02672  eV     1   --> A              
     e( 18 - 18) =     13.20736  eV     1   --> A              
     e( 19 - 19) =     13.74825  eV     1   --> A              
     e( 20 - 20) =     14.30473  eV     1   --> A              
     e( 21 - 21) =     14.74679  eV     1   --> A              
     e( 22 - 22) =     15.30897  eV     1   --> A              
     e( 23 - 23) =     15.38922  eV     1   --> A              
     e( 24 - 24) =     15.57829  eV     1   --> A              
     e( 25 - 25) =     15.85817  eV     1   --> A              
     e( 26 - 26) =     16.18080  eV     1   --> A              
     e( 27 - 27) =     16.21324  eV     1   --> A              
     e( 28 - 28) =     16.56629  eV     1   --> A              
     e( 29 - 29) =     16.82477  eV     1   --> A              
     e( 30 - 30) =     17.19235  eV     1   --> A              
     e( 31 - 31) =     17.47969  eV     1   --> A              
     e( 32 - 32) =     17.57659  eV     1   --> A              

 **************************************************************************

 **************************************************************************

                    xk=(  -0.30000,   0.51962,   0.00000  )

     Band symmetry, C_1 (1)     point group:

     e(  1 -  1) =    -14.05245  eV     1   --> A              
     e(  2 -  2) =    -13.98422  eV     1   --> A              
     e(  3 -  3) =    -12.36499  eV     1   --> A              
     e(  4 -  4) =    -12.30693  eV     1   --> A              
     e(  5 -  5) =    -10.67630  eV     1   --> A              
     e(  6 -  6) =    -10.63293  eV     1   --> A              
     e(  7 -  7) =     -1.78056  eV     1   --> A              
     e(  8 -  8) =     -1.24415  eV     1   --> A              
     e(  9 -  9) =      0.27317  eV     1   --> A              
     e( 10 - 10) =      0.75861  eV     1   --> A              
     e( 11 - 11) =      9.51027  eV     1   --> A              
     e( 12 - 12) =     10.89840  eV     1   --> A              
     e( 13 - 13) =     11.08127  eV     1   --> A              
     e( 14 - 14) =     12.15115  eV     1   --> A              
     e( 15 - 15) =     12.41471  eV     1   --> A              
     e( 16 - 16) =     12.46708  eV     1   --> A              
     e( 17 - 17) =     12.86623  eV     1   --> A              
     e( 18 - 18) =     12.96171  eV     1   --> A              
     e( 19 - 19) =     13.48556  eV     1   --> A              
     e( 20 - 20) =     14.04675  eV     1   --> A              
     e( 21 - 21) =     14.43954  eV     1   --> A              
     e( 22 - 22) =     15.52080  eV     1   --> A              
     e( 23 - 23) =     15.58874  eV     1   --> A              
     e( 24 - 24) =     15.66938  eV     1   --> A              
     e( 25 - 25) =     16.09785  eV     1   --> A              
     e( 26 - 26) =     16.19941  eV     1   --> A              
     e( 27 - 27) =     16.40973  eV     1   --> A              
     e( 28 - 28) =     16.45213  eV     1   --> A              
     e( 29 - 29) =     16.75570  eV     1   --> A              
     e( 30 - 30) =     17.42966  eV     1   --> A              
     e( 31 - 31) =     17.63999  eV     1   --> A              
     e( 32 - 32) =     17.70720  eV     1   --> A              

 **************************************************************************

 **************************************************************************

                    xk=(  -0.29333,   0.50807,   0.00000  )

     Band symmetry, C_1 (1)     point group:

     e(  1 -  1) =    -14.27682  eV     1   --> A              
     e(  2 -  2) =    -14.20743  eV     1   --> A              
     e(  3 -  3) =    -12.20337  eV     1   --> A              
     e(  4 -  4) =    -12.14634  eV     1   --> A              
     e(  5 -  5) =    -10.54176  eV     1   --> A              
     e(  6 -  6) =    -10.49895  eV     1   --> A              
     e(  7 -  7) =     -2.00663  eV     1   --> A              
     e(  8 -  8) =     -1.46117  eV     1   --> A              
     e(  9 -  9) =      0.49606  eV     1   --> A              
     e( 10 - 10) =      0.97720  eV     1   --> A              
     e( 11 - 11) =      9.58596  eV     1   --> A              
     e( 12 - 12) =     10.78526  eV     1   --> A              
     e( 13 - 13) =     10.78737  eV     1   --> A              
     e( 14 - 14) =     12.14182  eV     1   --> A              
     e( 15 - 15) =     12.27348  eV     1   --> A              
     e( 16 - 16) =     12.28239  eV     1   --> A              
     e( 17 - 17) =     12.57947  eV     1   --> A              
     e( 18 - 18) =     12.88659  eV     1   --> A              
     e( 19 - 19) =     13.21788  eV     1   --> A              
     e( 20 - 20) =     13.77788  eV     1   --> A              
     e( 21 - 21) =     14.15827  eV     1   --> A              
     e( 22 - 22) =     15.62441  eV     1   --> A              
     e( 23 - 23) =     15.73975  eV     1   --> A              
     e( 24 - 24) =     15.80550  eV     1   --> A              
     e( 25 - 25) =     16.21575  eV     1   --> A              
     e( 26 - 26) =     16.21934  eV     1   --> A              
     e( 27 - 27) =     16.37331  eV     1   --> A              
     e( 28 - 28) =     16.64818  eV     1   --> A              
     e( 29 - 29) =     16.84942  eV     1   --> A              
     e( 30 - 30) =     17.67724  eV     1   --> A              
     e( 31 - 31) =     17.85052  eV     1   --> A              
     e( 32 - 32) =     17.85321  eV     1   --> A              

 **************************************************************************

 **************************************************************************

                    xk=(  -0.28667,   0.49652,   0.00000  )

     Band symmetry, C_1 (1)     point group:

     e(  1 -  1) =    -14.50367  eV     1   --> A              
     e(  2 -  2) =    -14.43305  eV     1   --> A              
     e(  3 -  3) =    -12.03673  eV     1   --> A              
     e(  4 -  4) =    -11.98078  eV     1   --> A              
     e(  5 -  5) =    -10.39630  eV     1   --> A              
     e(  6 -  6) =    -10.35412  eV     1   --> A              
     e(  7 -  7) =     -2.23630  eV     1   --> A              
     e(  8 -  8) =     -1.68144  eV     1   --> A              
     e(  9 -  9) =      0.72522  eV     1   --> A              
     e( 10 - 10) =      1.20184  eV     1   --> A              
     e( 11 - 11) =      9.66673  eV     1   --> A              
     e( 12 - 12) =     10.47873  eV     1   --> A              
     e( 13 - 13) =     10.62168  eV     1   --> A              
     e( 14 - 14) =     11.98713  eV     1   --> A              
     e( 15 - 15) =     12.12295  eV     1   --> A              
     e( 16 - 16) =     12.18646  eV     1   --> A              
     e( 17 - 17) =     12.37235  eV     1   --> A              
     e( 18 - 18) =     12.80413  eV     1   --> A              
     e( 19 - 19) =     12.94495  eV     1   --> A              
     e( 20 - 20) =     13.50602  eV     1   --> A              
     e( 21 - 21) =     13.91055  eV     1   --> A              
     e( 22 - 22) =     15.43661  eV     1   --> A              
     e( 23 - 23) =     15.96569  eV     1   --> A              
     e( 24 - 24) =     15.98165  eV     1   --> A              
     e( 25 - 25) =     16.03716  eV     1   --> A              
     e( 26 - 26) =     16.33928  eV     1   --> A              
     e( 27 - 27) =     16.61646  eV     1   --> A              
     e( 28 - 28) =     16.89574  eV     1   --> A              
     e( 29 - 29) =     17.03040  eV     1   --> A              
     e( 30 - 30) =     17.93437  eV     1   --> A              
     e( 31 - 31) =     18.01335  eV     1   --> A              
     e( 32 - 32) =     18.07285  eV     1   --> A              

 **************************************************************************

 **************************************************************************

                    xk=(  -0.28000,   0.48497,   0.00000  )

     Band symmetry, C_1 (1)     point group:

     e(  1 -  1) =    -14.73121  eV     1   --> A              
     e(  2 -  2) =    -14.65937  eV     1   --> A              
     e(  3 -  3) =    -11.86516  eV     1   --> A              
     e(  4 -  4) =    -11.81029  eV     1   --> A              
     e(  5 -  5) =    -10.24175  eV     1   --> A              
     e(  6 -  6) =    -10.20024  eV     1   --> A              
     e(  7 -  7) =     -2.46866  eV     1   --> A              
     e(  8 -  8) =     -1.90414  eV     1   --> A              
     e(  9 -  9) =      0.96052  eV     1   --> A              
     e( 10 - 10) =      1.43241  eV     1   --> A              
     e( 11 - 11) =      9.74804  eV     1   --> A              
     e( 12 - 12) =     10.16713  eV     1   --> A              
     e( 13 - 13) =     10.40845  eV     1   --> A              
     e( 14 - 14) =     11.65886  eV     1   --> A              
     e( 15 - 15) =     12.09530  eV     1   --> A              
     e( 16 - 16) =     12.10885  eV     1   --> A              
     e( 17 - 17) =     12.19733  eV     1   --> A              
     e( 18 - 18) =     12.67274  eV     1   --> A              
     e( 19 - 19) =     12.71636  eV     1   --> A              
     e( 20 - 20) =     13.23705  eV     1   --> A              
     e( 21 - 21) =     13.70426  eV     1   --> A              
     e( 22 - 22) =     15.19578  eV     1   --> A              
     e( 23 - 23) =     15.71278  eV     1   --> A              
     e( 24 - 24) =     16.19825  eV     1   --> A              
     e( 25 - 25) =     16.28177  eV     1   --> A              
     e( 26 - 26) =     16.52013  eV     1   --> A              
     e( 27 - 27) =     16.88035  eV     1   --> A              
     e( 28 - 28) =     17.15182  eV     1   --> A              
     e( 29 - 29) =     17.25476  eV     1   --> A              
     e( 30 - 30) =     18.00684  eV     1   --> A              
     e( 31 - 31) =     18.18630  eV     1   --> A              
     e( 32 - 32) =     18.20037  eV     1   --> A              

 **************************************************************************

 **************************************************************************

                    xk=(  -0.27333,   0.47343,   0.00000  )

     Band symmetry, C_1 (1)     point group:

     e(  1 -  1) =    -14.95809  eV     1   --> A              
     e(  2 -  2) =    -14.88498  eV     1   --> A              
     e(  3 -  3) =    -11.68874  eV     1   --> A              
     e(  4 -  4) =    -11.63494  eV     1   --> A              
     e(  5 -  5) =    -10.07937  eV     1   --> A              
     e(  6 -  6) =    -10.03857  eV     1   --> A              
     e(  7 -  7) =     -2.70271  eV     1   --> A              
     e(  8 -  8) =     -2.12839  eV     1   --> A              
     e(  9 -  9) =      1.20175  eV     1   --> A              
     e( 10 - 10) =      1.66867  eV     1   --> A              
     e( 11 - 11) =      9.81936  eV     1   --> A              
     e( 12 - 12) =      9.85879  eV     1   --> A              
     e( 13 - 13) =     10.16127  eV     1   --> A              
     e( 14 - 14) =     11.32391  eV     1   --> A              
     e( 15 - 15) =     12.01093  eV     1   --> A              
     e( 16 - 16) =     12.02359  eV     1   --> A              
     e( 17 - 17) =     12.05975  eV     1   --> A              
     e( 18 - 18) =     12.41839  eV     1   --> A              
     e( 19 - 19) =     12.62489  eV     1   --> A              
     e( 20 - 20) =     12.97527  eV     1   --> A              
     e( 21 - 21) =     13.54788  eV     1   --> A              
     e( 22 - 22) =     14.94565  eV     1   --> A              
     e( 23 - 23) =     15.43988  eV     1   --> A              
     e( 24 - 24) =     16.43671  eV     1   --> A              
     e( 25 - 25) =     16.53772  eV     1   --> A              
     e( 26 - 26) =     16.72824  eV     1   --> A              
     e( 27 - 27) =     17.15366  eV     1   --> A              
     e( 28 - 28) =     17.41559  eV     1   --> A              
     e( 29 - 29) =     17.50567  eV     1   --> A              
     e( 30 - 30) =     17.81805  eV     1   --> A              
     e( 31 - 31) =     18.35226  eV     1   --> A              
     e( 32 - 32) =     18.37080  eV     1   --> A              

 **************************************************************************

 **************************************************************************

                    xk=(  -0.26667,   0.46188,   0.00000  )

     Band symmetry, C_1 (1)     point group:

     e(  1 -  1) =    -15.18329  eV     1   --> A              
     e(  2 -  2) =    -15.10896  eV     1   --> A              
     e(  3 -  3) =    -11.50745  eV     1   --> A              
     e(  4 -  4) =    -11.45481  eV     1   --> A              
     e(  5 -  5) =     -9.91017  eV     1   --> A              
     e(  6 -  6) =     -9.87018  eV     1   --> A              
     e(  7 -  7) =     -2.93763  eV     1   --> A              
     e(  8 -  8) =     -2.35347  eV     1   --> A              
     e(  9 -  9) =      1.44877  eV     1   --> A              
     e( 10 - 10) =      1.91053  eV     1   --> A              
     e( 11 - 11) =      9.54028  eV     1   --> A              
     e( 12 - 12) =      9.88847  eV     1   --> A              
     e( 13 - 13) =      9.89291  eV     1   --> A              
     e( 14 - 14) =     10.99440  eV     1   --> A              
     e( 15 - 15) =     11.84364  eV     1   --> A              
     e( 16 - 16) =     11.84509  eV     1   --> A              
     e( 17 - 17) =     12.01722  eV     1   --> A              
     e( 18 - 18) =     12.21016  eV     1   --> A              
     e( 19 - 19) =     12.53082  eV     1   --> A              
     e( 20 - 20) =     12.72376  eV     1   --> A              
     e( 21 - 21) =     13.44671  eV     1   --> A              
     e( 22 - 22) =     14.70267  eV     1   --> A              
     e( 23 - 23) =     15.17589  eV     1   --> A              
     e( 24 - 24) =     16.67986  eV     1   --> A              
     e( 25 - 25) =     16.80356  eV     1   --> A              
     e( 26 - 26) =     16.94895  eV     1   --> A              
     e( 27 - 27) =     17.43541  eV     1   --> A              
     e( 28 - 28) =     17.59426  eV     1   --> A              
     e( 29 - 29) =     17.68585  eV     1   --> A              
     e( 30 - 30) =     17.77627  eV     1   --> A              
     e( 31 - 31) =     18.29400  eV     1   --> A              
     e( 32 - 32) =     18.56577  eV     1   --> A              

 **************************************************************************

 **************************************************************************

                    xk=(  -0.26000,   0.45033,   0.00000  )

     Band symmetry, C_1 (1)     point group:

     e(  1 -  1) =    -15.40607  eV     1   --> A              
     e(  2 -  2) =    -15.33052  eV     1   --> A              
     e(  3 -  3) =    -11.32145  eV     1   --> A              
     e(  4 -  4) =    -11.26991  eV     1   --> A              
     e(  5 -  5) =     -9.73499  eV     1   --> A              
     e(  6 -  6) =     -9.69583  eV     1   --> A              
     e(  7 -  7) =     -3.17258  eV     1   --> A              
     e(  8 -  8) =     -2.57867  eV     1   --> A              
     e(  9 -  9) =      1.70143  eV     1   --> A              
     e( 10 - 10) =      2.15774  eV     1   --> A              
     e( 11 - 11) =      9.23079  eV     1   --> A              
     e( 12 - 12) =      9.61275  eV     1   --> A              
     e( 13 - 13) =      9.92530  eV     1   --> A              
     e( 14 - 14) =     10.67866  eV     1   --> A              
     e( 15 - 15) =     11.60171  eV     1   --> A              
     e( 16 - 16) =     11.66347  eV     1   --> A              
     e( 17 - 17) =     11.96850  eV     1   --> A              
     e( 18 - 18) =     12.04254  eV     1   --> A              
     e( 19 - 19) =     12.43506  eV     1   --> A              
     e( 20 - 20) =     12.48447  eV     1   --> A              
     e( 21 - 21) =     13.39456  eV     1   --> A              
     e( 22 - 22) =     14.47556  eV     1   --> A              
     e( 23 - 23) =     14.93442  eV     1   --> A              
     e( 24 - 24) =     16.92575  eV     1   --> A              
     e( 25 - 25) =     17.07785  eV     1   --> A              
     e( 26 - 26) =     17.13069  eV     1   --> A              
     e( 27 - 27) =     17.41241  eV     1   --> A              
     e( 28 - 28) =     17.72423  eV     1   --> A              
     e( 29 - 29) =     17.96088  eV     1   --> A              
     e( 30 - 30) =     18.06154  eV     1   --> A              
     e( 31 - 31) =     18.14300  eV     1   --> A              
     e( 32 - 32) =     18.77047  eV     1   --> A              

 **************************************************************************

 **************************************************************************

                    xk=(  -0.25333,   0.43879,   0.00000  )

     Band symmetry, C_1 (1)     point group:

     e(  1 -  1) =    -15.62584  eV     1   --> A              
     e(  2 -  2) =    -15.54904  eV     1   --> A              
     e(  3 -  3) =    -11.13074  eV     1   --> A              
     e(  4 -  4) =    -11.08032  eV     1   --> A              
     e(  5 -  5) =     -9.55445  eV     1   --> A              
     e(  6 -  6) =     -9.51616  eV     1   --> A              
     e(  7 -  7) =     -3.40685  eV     1   --> A              
     e(  8 -  8) =     -2.80332  eV     1   --> A              
     e(  9 -  9) =      1.95948  eV     1   --> A              
     e( 10 - 10) =      2.41013  eV     1   --> A              
     e( 11 - 11) =      8.92511  eV     1   --> A              
     e( 12 - 12) =      9.32708  eV     1   --> A              
     e( 13 - 13) =      9.91194  eV     1   --> A              
     e( 14 - 14) =     10.39338  eV     1   --> A              
     e( 15 - 15) =     11.32451  eV     1   --> A              
     e( 16 - 16) =     11.48305  eV     1   --> A              
     e( 17 - 17) =     11.87848  eV     1   --> A              
     e( 18 - 18) =     11.91440  eV     1   --> A              
     e( 19 - 19) =     12.25835  eV     1   --> A              
     e( 20 - 20) =     12.33823  eV     1   --> A              
     e( 21 - 21) =     13.36730  eV     1   --> A              
     e( 22 - 22) =     14.27078  eV     1   --> A              
     e( 23 - 23) =     14.73490  eV     1   --> A              
     e( 24 - 24) =     17.02623  eV     1   --> A              
     e( 25 - 25) =     17.17134  eV     1   --> A              
     e( 26 - 26) =     17.35889  eV     1   --> A              
     e( 27 - 27) =     17.52985  eV     1   --> A              
     e( 28 - 28) =     17.92576  eV     1   --> A              
     e( 29 - 29) =     18.03998  eV     1   --> A              
     e( 30 - 30) =     18.23811  eV     1   --> A              
     e( 31 - 31) =     18.35994  eV     1   --> A              
     e( 32 - 32) =     18.98491  eV     1   --> A              

 **************************************************************************

 **************************************************************************

                    xk=(  -0.24667,   0.42724,   0.00000  )

     Band symmetry, C_1 (1)     point group:

     e(  1 -  1) =    -15.84207  eV     1   --> A              
     e(  2 -  2) =    -15.76404  eV     1   --> A              
     e(  3 -  3) =    -10.93538  eV     1   --> A              
     e(  4 -  4) =    -10.88615  eV     1   --> A              
     e(  5 -  5) =     -9.36908  eV     1   --> A              
     e(  6 -  6) =     -9.33171  eV     1   --> A              
     e(  7 -  7) =     -3.63972  eV     1   --> A              
     e(  8 -  8) =     -3.02676  eV     1   --> A              
     e(  9 -  9) =      2.22275  eV     1   --> A              
     e( 10 - 10) =      2.66750  eV     1   --> A              
     e( 11 - 11) =      8.62430  eV     1   --> A              
     e( 12 - 12) =      9.04000  eV     1   --> A              
     e( 13 - 13) =      9.79863  eV     1   --> A              
     e( 14 - 14) =     10.17946  eV     1   --> A              
     e( 15 - 15) =     11.03630  eV     1   --> A              
     e( 16 - 16) =     11.30876  eV     1   --> A              
     e( 17 - 17) =     11.70352  eV     1   --> A              
     e( 18 - 18) =     11.85567  eV     1   --> A              
     e( 19 - 19) =     12.04540  eV     1   --> A              
     e( 20 - 20) =     12.24079  eV     1   --> A              
     e( 21 - 21) =     13.32590  eV     1   --> A              
     e( 22 - 22) =     14.09391  eV     1   --> A              
     e( 23 - 23) =     14.60486  eV     1   --> A              
     e( 24 - 24) =     16.80184  eV     1   --> A              
     e( 25 - 25) =     17.41179  eV     1   --> A              
     e( 26 - 26) =     17.64439  eV     1   --> A              
     e( 27 - 27) =     17.71322  eV     1   --> A              
     e( 28 - 28) =     17.78652  eV     1   --> A              
     e( 29 - 29) =     18.33396  eV     1   --> A              
     e( 30 - 30) =     18.51395  eV     1   --> A              
     e( 31 - 31) =     18.66972  eV     1   --> A              
     e( 32 - 32) =     19.21031  eV     1   --> A              

 **************************************************************************

 **************************************************************************

                    xk=(  -0.24000,   0.41569,   0.00000  )

     Band symmetry, C_1 (1)     point group:

     e(  1 -  1) =    -16.05446  eV     1   --> A              
     e(  2 -  2) =    -15.97518  eV     1   --> A              
     e(  3 -  3) =    -10.73557  eV     1   --> A              
     e(  4 -  4) =    -10.68747  eV     1   --> A              
     e(  5 -  5) =     -9.17946  eV     1   --> A              
     e(  6 -  6) =     -9.14299  eV     1   --> A              
     e(  7 -  7) =     -3.87060  eV     1   --> A              
     e(  8 -  8) =     -3.24849  eV     1   --> A              
     e(  9 -  9) =      2.49101  eV     1   --> A              
     e( 10 - 10) =      2.92961  eV     1   --> A              
     e( 11 - 11) =      8.32910  eV     1   --> A              
     e( 12 - 12) =      8.75423  eV     1   --> A              
     e( 13 - 13) =      9.57217  eV     1   --> A              
     e( 14 - 14) =     10.04331  eV     1   --> A              
     e( 15 - 15) =     10.74647  eV     1   --> A              
     e( 16 - 16) =     11.14382  eV     1   --> A              
     e( 17 - 17) =     11.51862  eV     1   --> A              
     e( 18 - 18) =     11.79287  eV     1   --> A              
     e( 19 - 19) =     11.84457  eV     1   --> A              
     e( 20 - 20) =     12.14304  eV     1   --> A              
     e( 21 - 21) =     13.23371  eV     1   --> A              
     e( 22 - 22) =     13.94943  eV     1   --> A              
     e( 23 - 23) =     14.56926  eV     1   --> A              
     e( 24 - 24) =     16.57614  eV     1   --> A              
     e( 25 - 25) =     17.47800  eV     1   --> A              
     e( 26 - 26) =     17.63937  eV     1   --> A              
     e( 27 - 27) =     17.93074  eV     1   --> A              
     e( 28 - 28) =     18.06834  eV     1   --> A              
     e( 29 - 29) =     18.64480  eV     1   --> A              
     e( 30 - 30) =     18.78393  eV     1   --> A              
     e( 31 - 31) =     18.98946  eV     1   --> A              
     e( 32 - 32) =     19.44962  eV     1   --> A              

 **************************************************************************

 **************************************************************************

                    xk=(  -0.23333,   0.40415,   0.00000  )

     Band symmetry, C_1 (1)     point group:

     e(  1 -  1) =    -16.26261  eV     1   --> A              
     e(  2 -  2) =    -16.18212  eV     1   --> A              
     e(  3 -  3) =    -10.53130  eV     1   --> A              
     e(  4 -  4) =    -10.48432  eV     1   --> A              
     e(  5 -  5) =     -8.98598  eV     1   --> A              
     e(  6 -  6) =     -8.95044  eV     1   --> A              
     e(  7 -  7) =     -4.09895  eV     1   --> A              
     e(  8 -  8) =     -3.46797  eV     1   --> A              
     e(  9 -  9) =      2.76402  eV     1   --> A              
     e( 10 - 10) =      3.19617  eV     1   --> A              
     e( 11 - 11) =      8.04007  eV     1   --> A              
     e( 12 - 12) =      8.47163  eV     1   --> A              
     e( 13 - 13) =      9.29932  eV     1   --> A              
     e( 14 - 14) =      9.91685  eV     1   --> A              
     e( 15 - 15) =     10.45902  eV     1   --> A              
     e( 16 - 16) =     10.98776  eV     1   --> A              
     e( 17 - 17) =     11.32776  eV     1   --> A              
     e( 18 - 18) =     11.65365  eV     1   --> A              
     e( 19 - 19) =     11.72660  eV     1   --> A              
     e( 20 - 20) =     12.04523  eV     1   --> A              
     e( 21 - 21) =     13.08142  eV     1   --> A              
     e( 22 - 22) =     13.83952  eV     1   --> A              
     e( 23 - 23) =     14.62817  eV     1   --> A              
     e( 24 - 24) =     16.36486  eV     1   --> A              
     e( 25 - 25) =     17.23765  eV     1   --> A              
     e( 26 - 26) =     17.84214  eV     1   --> A              
     e( 27 - 27) =     18.21148  eV     1   --> A              
     e( 28 - 28) =     18.36412  eV     1   --> A              
     e( 29 - 29) =     18.96088  eV     1   --> A              
     e( 30 - 30) =     19.04432  eV     1   --> A              
     e( 31 - 31) =     19.31685  eV     1   --> A              
     e( 32 - 32) =     19.70720  eV     1   --> A              

 **************************************************************************

 **************************************************************************

                    xk=(  -0.22667,   0.39260,   0.00000  )

     Band symmetry, C_1 (1)     point group:

     e(  1 -  1) =    -16.46631  eV     1   --> A              
     e(  2 -  2) =    -16.38463  eV     1   --> A              
     e(  3 -  3) =    -10.32273  eV     1   --> A              
     e(  4 -  4) =    -10.27692  eV     1   --> A              
     e(  5 -  5) =     -8.78908  eV     1   --> A              
     e(  6 -  6) =     -8.75449  eV     1   --> A              
     e(  7 -  7) =     -4.32427  eV     1   --> A              
     e(  8 -  8) =     -3.68470  eV     1   --> A              
     e(  9 -  9) =      3.04150  eV     1   --> A              
     e( 10 - 10) =      3.46695  eV     1   --> A              
     e( 11 - 11) =      7.75761  eV     1   --> A              
     e( 12 - 12) =      8.19349  eV     1   --> A              
     e( 13 - 13) =      9.01723  eV     1   --> A              
     e( 14 - 14) =      9.76827  eV     1   --> A              
     e( 15 - 15) =     10.17602  eV     1   --> A              
     e( 16 - 16) =     10.83652  eV     1   --> A              
     e( 17 - 17) =     11.13438  eV     1   --> A              
     e( 18 - 18) =     11.46927  eV     1   --> A              
     e( 19 - 19) =     11.65730  eV     1   --> A              
     e( 20 - 20) =     11.94747  eV     1   --> A              
     e( 21 - 21) =     12.88523  eV     1   --> A              
     e( 22 - 22) =     13.76237  eV     1   --> A              
     e( 23 - 23) =     14.75816  eV     1   --> A              
     e( 24 - 24) =     16.17637  eV     1   --> A              
     e( 25 - 25) =     16.99828  eV     1   --> A              
     e( 26 - 26) =     18.00299  eV     1   --> A              
     e( 27 - 27) =     18.47351  eV     1   --> A              
     e( 28 - 28) =     18.67088  eV     1   --> A              
     e( 29 - 29) =     19.27851  eV     1   --> A              
     e( 30 - 30) =     19.29574  eV     1   --> A              
     e( 31 - 31) =     19.64168  eV     1   --> A              
     e( 32 - 32) =     19.98704  eV     1   --> A              

 **************************************************************************

 **************************************************************************

                    xk=(  -0.22000,   0.38105,   0.00000  )

     Band symmetry, C_1 (1)     point group:

     e(  1 -  1) =    -16.66531  eV     1   --> A              
     e(  2 -  2) =    -16.58246  eV     1   --> A              
     e(  3 -  3) =    -10.10994  eV     1   --> A              
     e(  4 -  4) =    -10.06528  eV     1   --> A              
     e(  5 -  5) =     -8.58918  eV     1   --> A              
     e(  6 -  6) =     -8.55553  eV     1   --> A              
     e(  7 -  7) =     -4.54608  eV     1   --> A              
     e(  8 -  8) =     -3.89825  eV     1   --> A              
     e(  9 -  9) =      3.32318  eV     1   --> A              
     e( 10 - 10) =      3.74167  eV     1   --> A              
     e( 11 - 11) =      7.48206  eV     1   --> A              
     e( 12 - 12) =      7.92072  eV     1   --> A              
     e( 13 - 13) =      8.73673  eV     1   --> A              
     e( 14 - 14) =      9.59622  eV     1   --> A              
     e( 15 - 15) =      9.89866  eV     1   --> A              
     e( 16 - 16) =     10.68541  eV     1   --> A              
     e( 17 - 17) =     10.94099  eV     1   --> A              
     e( 18 - 18) =     11.28759  eV     1   --> A              
     e( 19 - 19) =     11.58534  eV     1   --> A              
     e( 20 - 20) =     11.84984  eV     1   --> A              
     e( 21 - 21) =     12.66461  eV     1   --> A              
     e( 22 - 22) =     13.71086  eV     1   --> A              
     e( 23 - 23) =     14.93302  eV     1   --> A              
     e( 24 - 24) =     16.01908  eV     1   --> A              
     e( 25 - 25) =     16.76549  eV     1   --> A              
     e( 26 - 26) =     18.10171  eV     1   --> A              
     e( 27 - 27) =     18.68860  eV     1   --> A              
     e( 28 - 28) =     18.98691  eV     1   --> A              
     e( 29 - 29) =     19.54589  eV     1   --> A              
     e( 30 - 30) =     19.59028  eV     1   --> A              
     e( 31 - 31) =     19.79912  eV     1   --> A              
     e( 32 - 32) =     20.07796  eV     1   --> A              

 **************************************************************************

 **************************************************************************

                    xk=(  -0.21333,   0.36950,   0.00000  )

     Band symmetry, C_1 (1)     point group:

     e(  1 -  1) =    -16.85941  eV     1   --> A              
     e(  2 -  2) =    -16.77543  eV     1   --> A              
     e(  3 -  3) =     -9.89309  eV     1   --> A              
     e(  4 -  4) =     -9.84960  eV     1   --> A              
     e(  5 -  5) =     -8.38663  eV     1   --> A              
     e(  6 -  6) =     -8.35397  eV     1   --> A              
     e(  7 -  7) =     -4.76398  eV     1   --> A              
     e(  8 -  8) =     -4.10822  eV     1   --> A              
     e(  9 -  9) =      3.60873  eV     1   --> A              
     e( 10 - 10) =      4.01994  eV     1   --> A              
     e( 11 - 11) =      7.21367  eV     1   --> A              
     e( 12 - 12) =      7.65400  eV     1   --> A              
     e( 13 - 13) =      8.46146  eV     1   --> A              
     e( 14 - 14) =      9.40696  eV     1   --> A              
     e( 15 - 15) =      9.62769  eV     1   --> A              
     e( 16 - 16) =     10.53185  eV     1   --> A              
     e( 17 - 17) =     10.74935  eV     1   --> A              
     e( 18 - 18) =     11.10539  eV     1   --> A              
     e( 19 - 19) =     11.51099  eV     1   --> A              
     e( 20 - 20) =     11.75231  eV     1   --> A              
     e( 21 - 21) =     12.43262  eV     1   --> A              
     e( 22 - 22) =     13.67279  eV     1   --> A              
     e( 23 - 23) =     15.13067  eV     1   --> A              
     e( 24 - 24) =     15.90236  eV     1   --> A              
     e( 25 - 25) =     16.54742  eV     1   --> A              
     e( 26 - 26) =     18.12191  eV     1   --> A              
     e( 27 - 27) =     18.80215  eV     1   --> A              
     e( 28 - 28) =     19.30967  eV     1   --> A              
     e( 29 - 29) =     19.64327  eV     1   --> A              
     e( 30 - 30) =     19.80660  eV     1   --> A              
     e( 31 - 31) =     19.87591  eV     1   --> A              
     e( 32 - 32) =     20.19838  eV     1   --> A              

 **************************************************************************

 **************************************************************************

                    xk=(  -0.20667,   0.35796,   0.00000  )

     Band symmetry, C_1 (1)     point group:

     e(  1 -  1) =    -17.04850  eV     1   --> A              
     e(  2 -  2) =    -16.96338  eV     1   --> A              
     e(  3 -  3) =     -9.67225  eV     1   --> A              
     e(  4 -  4) =     -9.62997  eV     1   --> A              
     e(  5 -  5) =     -8.18184  eV     1   --> A              
     e(  6 -  6) =     -8.15018  eV     1   --> A              
     e(  7 -  7) =     -4.97761  eV     1   --> A              
     e(  8 -  8) =     -4.31428  eV     1   --> A              
     e(  9 -  9) =      3.89782  eV     1   --> A              
     e( 10 - 10) =      4.30146  eV     1   --> A              
     e( 11 - 11) =      6.95266  eV     1   --> A              
     e( 12 - 12) =      7.39383  eV     1   --> A              
     e( 13 - 13) =      8.19291  eV     1   --> A              
     e( 14 - 14) =      9.20708  eV     1   --> A              
     e( 15 - 15) =      9.36365  eV     1   --> A              
     e( 16 - 16) =     10.37556  eV     1   --> A              
     e( 17 - 17) =     10.56073  eV     1   --> A              
     e( 18 - 18) =     10.92090  eV     1   --> A              
     e( 19 - 19) =     11.43446  eV     1   --> A              
     e( 20 - 20) =     11.65484  eV     1   --> A              
     e( 21 - 21) =     12.19680  eV     1   --> A              
     e( 22 - 22) =     13.63319  eV     1   --> A              
     e( 23 - 23) =     15.32492  eV     1   --> A              
     e( 24 - 24) =     15.83552  eV     1   --> A              
     e( 25 - 25) =     16.36191  eV     1   --> A              
     e( 26 - 26) =     18.05879  eV     1   --> A              
     e( 27 - 27) =     18.75817  eV     1   --> A              
     e( 28 - 28) =     19.44108  eV     1   --> A              
     e( 29 - 29) =     19.65164  eV     1   --> A              
     e( 30 - 30) =     20.07508  eV     1   --> A              
     e( 31 - 31) =     20.08682  eV     1   --> A              
     e( 32 - 32) =     20.27979  eV     1   --> A              

 **************************************************************************

 **************************************************************************

                    xk=(  -0.20000,   0.34641,   0.00000  )

     Band symmetry, C_1 (1)     point group:

     e(  1 -  1) =    -17.23239  eV     1   --> A              
     e(  2 -  2) =    -17.14620  eV     1   --> A              
     e(  3 -  3) =     -9.44766  eV     1   --> A              
     e(  4 -  4) =     -9.40664  eV     1   --> A              
     e(  5 -  5) =     -7.97524  eV     1   --> A              
     e(  6 -  6) =     -7.94461  eV     1   --> A              
     e(  7 -  7) =     -5.18664  eV     1   --> A              
     e(  8 -  8) =     -4.51603  eV     1   --> A              
     e(  9 -  9) =      4.19003  eV     1   --> A              
     e( 10 - 10) =      4.58582  eV     1   --> A              
     e( 11 - 11) =      6.69921  eV     1   --> A              
     e( 12 - 12) =      7.14058  eV     1   --> A              
     e( 13 - 13) =      7.93180  eV     1   --> A              
     e( 14 - 14) =      9.00171  eV     1   --> A              
     e( 15 - 15) =      9.10688  eV     1   --> A              
     e( 16 - 16) =     10.21768  eV     1   --> A              
     e( 17 - 17) =     10.37604  eV     1   --> A              
     e( 18 - 18) =     10.73388  eV     1   --> A              
     e( 19 - 19) =     11.35586  eV     1   --> A              
     e( 20 - 20) =     11.55725  eV     1   --> A              
     e( 21 - 21) =     11.96146  eV     1   --> A              
     e( 22 - 22) =     13.57848  eV     1   --> A              
     e( 23 - 23) =     15.46300  eV     1   --> A              
     e( 24 - 24) =     15.82509  eV     1   --> A              
     e( 25 - 25) =     16.25664  eV     1   --> A              
     e( 26 - 26) =     17.92000  eV     1   --> A              
     e( 27 - 27) =     18.57025  eV     1   --> A              
     e( 28 - 28) =     19.25198  eV     1   --> A              
     e( 29 - 29) =     19.98585  eV     1   --> A              
     e( 30 - 30) =     20.10716  eV     1   --> A              
     e( 31 - 31) =     20.38937  eV     1   --> A              
     e( 32 - 32) =     20.48479  eV     1   --> A              

 **************************************************************************

 **************************************************************************

                    xk=(  -0.19333,   0.33486,   0.00000  )

     Band symmetry, C_1 (1)     point group:

     e(  1 -  1) =    -17.41098  eV     1   --> A              
     e(  2 -  2) =    -17.32371  eV     1   --> A              
     e(  3 -  3) =     -9.21956  eV     1   --> A              
     e(  4 -  4) =     -9.17973  eV     1   --> A              
     e(  5 -  5) =     -7.76727  eV     1   --> A              
     e(  6 -  6) =     -7.73763  eV     1   --> A              
     e(  7 -  7) =     -5.39073  eV     1   --> A              
     e(  8 -  8) =     -4.71319  eV     1   --> A              
     e(  9 -  9) =      4.48503  eV     1   --> A              
     e( 10 - 10) =      4.87264  eV     1   --> A              
     e( 11 - 11) =      6.45344  eV     1   --> A              
     e( 12 - 12) =      6.89457  eV     1   --> A              
     e( 13 - 13) =      7.67854  eV     1   --> A              
     e( 14 - 14) =      8.79455  eV     1   --> A              
     e( 15 - 15) =      8.85768  eV     1   --> A              
     e( 16 - 16) =     10.05968  eV     1   --> A              
     e( 17 - 17) =     10.19599  eV     1   --> A              
     e( 18 - 18) =     10.54509  eV     1   --> A              
     e( 19 - 19) =     11.27519  eV     1   --> A              
     e( 20 - 20) =     11.45941  eV     1   --> A              
     e( 21 - 21) =     11.72913  eV     1   --> A              
     e( 22 - 22) =     13.50047  eV     1   --> A              
     e( 23 - 23) =     15.46455  eV     1   --> A              
     e( 24 - 24) =     15.87154  eV     1   --> A              
     e( 25 - 25) =     16.30857  eV     1   --> A              
     e( 26 - 26) =     17.71978  eV     1   --> A              
     e( 27 - 27) =     18.29607  eV     1   --> A              
     e( 28 - 28) =     19.06667  eV     1   --> A              
     e( 29 - 29) =     20.01754  eV     1   --> A              
     e( 30 - 30) =     20.32846  eV     1   --> A              
     e( 31 - 31) =     20.71281  eV     1   --> A              
     e( 32 - 32) =     20.76727  eV     1   --> A              

 **************************************************************************

 **************************************************************************

                    xk=(  -0.18667,   0.32332,   0.00000  )

     Band symmetry, C_1 (1)     point group:

     e(  1 -  1) =    -17.58415  eV     1   --> A              
     e(  2 -  2) =    -17.49585  eV     1   --> A              
     e(  3 -  3) =     -8.98802  eV     1   --> A              
     e(  4 -  4) =     -8.94945  eV     1   --> A              
     e(  5 -  5) =     -7.55834  eV     1   --> A              
     e(  6 -  6) =     -7.52968  eV     1   --> A              
     e(  7 -  7) =     -5.58964  eV     1   --> A              
     e(  8 -  8) =     -4.90545  eV     1   --> A              
     e(  9 -  9) =      4.78232  eV     1   --> A              
     e( 10 - 10) =      5.16147  eV     1   --> A              
     e( 11 - 11) =      6.21549  eV     1   --> A              
     e( 12 - 12) =      6.65602  eV     1   --> A              
     e( 13 - 13) =      7.43336  eV     1   --> A              
     e( 14 - 14) =      8.58820  eV     1   --> A              
     e( 15 - 15) =      8.61623  eV     1   --> A              
     e( 16 - 16) =      9.90301  eV     1   --> A              
     e( 17 - 17) =     10.02111  eV     1   --> A              
     e( 18 - 18) =     10.35581  eV     1   --> A              
     e( 19 - 19) =     11.19242  eV     1   --> A              
     e( 20 - 20) =     11.36104  eV     1   --> A              
     e( 21 - 21) =     11.50140  eV     1   --> A              
     e( 22 - 22) =     13.39786  eV     1   --> A              
     e( 23 - 23) =     15.34208  eV     1   --> A              
     e( 24 - 24) =     15.96806  eV     1   --> A              
     e( 25 - 25) =     16.50261  eV     1   --> A              
     e( 26 - 26) =     17.47302  eV     1   --> A              
     e( 27 - 27) =     17.97662  eV     1   --> A              
     e( 28 - 28) =     18.89423  eV     1   --> A              
     e( 29 - 29) =     19.88025  eV     1   --> A              
     e( 30 - 30) =     20.67458  eV     1   --> A              
     e( 31 - 31) =     21.05423  eV     1   --> A              
     e( 32 - 32) =     21.09196  eV     1   --> A              

 **************************************************************************

 **************************************************************************

                    xk=(  -0.18000,   0.31177,   0.00000  )

     Band symmetry, C_1 (1)     point group:

     e(  1 -  1) =    -17.75183  eV     1   --> A              
     e(  2 -  2) =    -17.66251  eV     1   --> A              
     e(  3 -  3) =     -8.75336  eV     1   --> A              
     e(  4 -  4) =     -8.71598  eV     1   --> A              
     e(  5 -  5) =     -7.34883  eV     1   --> A              
     e(  6 -  6) =     -7.32118  eV     1   --> A              
     e(  7 -  7) =     -5.78310  eV     1   --> A              
     e(  8 -  8) =     -5.09264  eV     1   --> A              
     e(  9 -  9) =      5.08145  eV     1   --> A              
     e( 10 - 10) =      5.45182  eV     1   --> A              
     e( 11 - 11) =      5.98544  eV     1   --> A              
     e( 12 - 12) =      6.42512  eV     1   --> A              
     e( 13 - 13) =      7.19642  eV     1   --> A              
     e( 14 - 14) =      8.38269  eV     1   --> A              
     e( 15 - 15) =      8.38449  eV     1   --> A              
     e( 16 - 16) =      9.74886  eV     1   --> A              
     e( 17 - 17) =      9.85182  eV     1   --> A              
     e( 18 - 18) =     10.16740  eV     1   --> A              
     e( 19 - 19) =     11.10743  eV     1   --> A              
     e( 20 - 20) =     11.26183  eV     1   --> A              
     e( 21 - 21) =     11.27930  eV     1   --> A              
     e( 22 - 22) =     13.27429  eV     1   --> A              
     e( 23 - 23) =     15.16860  eV     1   --> A              
     e( 24 - 24) =     16.10191  eV     1   --> A              
     e( 25 - 25) =     16.76339  eV     1   --> A              
     e( 26 - 26) =     17.19251  eV     1   --> A              
     e( 27 - 27) =     17.63303  eV     1   --> A              
     e( 28 - 28) =     18.74156  eV     1   --> A              
     e( 29 - 29) =     19.72538  eV     1   --> A              
     e( 30 - 30) =     21.02163  eV     1   --> A              
     e( 31 - 31) =     21.41062  eV     1   --> A              
     e( 32 - 32) =     21.44114  eV     1   --> A              

 **************************************************************************

 **************************************************************************

                    xk=(  -0.17333,   0.30022,   0.00000  )

     Band symmetry, C_1 (1)     point group:

     e(  1 -  1) =    -17.91390  eV     1   --> A              
     e(  2 -  2) =    -17.82360  eV     1   --> A              
     e(  3 -  3) =     -8.51579  eV     1   --> A              
     e(  4 -  4) =     -8.47948  eV     1   --> A              
     e(  5 -  5) =     -7.13923  eV     1   --> A              
     e(  6 -  6) =     -7.11253  eV     1   --> A              
     e(  7 -  7) =     -5.97089  eV     1   --> A              
     e(  8 -  8) =     -5.27447  eV     1   --> A              
     e(  9 -  9) =      5.38192  eV     1   --> A              
     e( 10 - 10) =      5.74323  eV     1   --> A              
     e( 11 - 11) =      5.76339  eV     1   --> A              
     e( 12 - 12) =      6.20201  eV     1   --> A              
     e( 13 - 13) =      6.96784  eV     1   --> A              
     e( 14 - 14) =      8.15721  eV     1   --> A              
     e( 15 - 15) =      8.18471  eV     1   --> A              
     e( 16 - 16) =      9.59814  eV     1   --> A              
     e( 17 - 17) =      9.68851  eV     1   --> A              
     e( 18 - 18) =      9.98116  eV     1   --> A              
     e( 19 - 19) =     11.02000  eV     1   --> A              
     e( 20 - 20) =     11.06351  eV     1   --> A              
     e( 21 - 21) =     11.16142  eV     1   --> A              
     e( 22 - 22) =     13.13536  eV     1   --> A              
     e( 23 - 23) =     14.97961  eV     1   --> A              
     e( 24 - 24) =     16.25630  eV     1   --> A              
     e( 25 - 25) =     16.88832  eV     1   --> A              
     e( 26 - 26) =     17.05294  eV     1   --> A              
     e( 27 - 27) =     17.27646  eV     1   --> A              
     e( 28 - 28) =     18.61762  eV     1   --> A              
     e( 29 - 29) =     19.56499  eV     1   --> A              
     e( 30 - 30) =     21.36635  eV     1   --> A              
     e( 31 - 31) =     21.77912  eV     1   --> A              
     e( 32 - 32) =     21.80592  eV     1   --> A              

 **************************************************************************

 **************************************************************************

                    xk=(  -0.16667,   0.28868,   0.00000  )

     Band symmetry, C_1 (1)     point group:

     e(  1 -  1) =    -18.07032  eV     1   --> A              
     e(  2 -  2) =    -17.97905  eV     1   --> A              
     e(  3 -  3) =     -8.27559  eV     1   --> A              
     e(  4 -  4) =     -8.24051  eV     1   --> A              
     e(  5 -  5) =     -6.93007  eV     1   --> A              
     e(  6 -  6) =     -6.90436  eV     1   --> A              
     e(  7 -  7) =     -6.15280  eV     1   --> A              
     e(  8 -  8) =     -5.45075  eV     1   --> A              
     e(  9 -  9) =      5.54939  eV     1   --> A              
     e( 10 - 10) =      5.68314  eV     1   --> A              
     e( 11 - 11) =      5.98683  eV     1   --> A              
     e( 12 - 12) =      6.03501  eV     1   --> A              
     e( 13 - 13) =      6.74767  eV     1   --> A              
     e( 14 - 14) =      7.93987  eV     1   --> A              
     e( 15 - 15) =      7.98983  eV     1   --> A              
     e( 16 - 16) =      9.45151  eV     1   --> A              
     e( 17 - 17) =      9.53141  eV     1   --> A              
     e( 18 - 18) =      9.79822  eV     1   --> A              
     e( 19 - 19) =     10.85451  eV     1   --> A              
     e( 20 - 20) =     10.92979  eV     1   --> A              
     e( 21 - 21) =     11.05928  eV     1   --> A              
     e( 22 - 22) =     12.98652  eV     1   --> A              
     e( 23 - 23) =     14.78770  eV     1   --> A              
     e( 24 - 24) =     16.41111  eV     1   --> A              
     e( 25 - 25) =     16.56823  eV     1   --> A              
     e( 26 - 26) =     16.91353  eV     1   --> A              
     e( 27 - 27) =     17.35546  eV     1   --> A              
     e( 28 - 28) =     18.53512  eV     1   --> A              
     e( 29 - 29) =     19.40578  eV     1   --> A              
     e( 30 - 30) =     21.70402  eV     1   --> A              
     e( 31 - 31) =     22.15657  eV     1   --> A              
     e( 32 - 32) =     22.18124  eV     1   --> A              

 **************************************************************************

 **************************************************************************

                    xk=(  -0.16000,   0.27713,   0.00000  )

     Band symmetry, C_1 (1)     point group:

     e(  1 -  1) =    -18.22098  eV     1   --> A              
     e(  2 -  2) =    -18.12879  eV     1   --> A              
     e(  3 -  3) =     -8.03316  eV     1   --> A              
     e(  4 -  4) =     -7.99929  eV     1   --> A              
     e(  5 -  5) =     -6.72188  eV     1   --> A              
     e(  6 -  6) =     -6.69707  eV     1   --> A              
     e(  7 -  7) =     -6.32859  eV     1   --> A              
     e(  8 -  8) =     -5.62128  eV     1   --> A              
     e(  9 -  9) =      5.34353  eV     1   --> A              
     e( 10 - 10) =      5.77967  eV     1   --> A              
     e( 11 - 11) =      5.98445  eV     1   --> A              
     e( 12 - 12) =      6.32665  eV     1   --> A              
     e( 13 - 13) =      6.53598  eV     1   --> A              
     e( 14 - 14) =      7.73074  eV     1   --> A              
     e( 15 - 15) =      7.80054  eV     1   --> A              
     e( 16 - 16) =      9.30955  eV     1   --> A              
     e( 17 - 17) =      9.38081  eV     1   --> A              
     e( 18 - 18) =      9.61953  eV     1   --> A              
     e( 19 - 19) =     10.65266  eV     1   --> A              
     e( 20 - 20) =     10.83637  eV     1   --> A              
     e( 21 - 21) =     10.95489  eV     1   --> A              
     e( 22 - 22) =     12.83223  eV     1   --> A              
     e( 23 - 23) =     14.59790  eV     1   --> A              
     e( 24 - 24) =     16.23846  eV     1   --> A              
     e( 25 - 25) =     16.54344  eV     1   --> A              
     e( 26 - 26) =     16.54882  eV     1   --> A              
     e( 27 - 27) =     17.66092  eV     1   --> A              
     e( 28 - 28) =     18.51077  eV     1   --> A              
     e( 29 - 29) =     19.25372  eV     1   --> A              
     e( 30 - 30) =     22.02717  eV     1   --> A              
     e( 31 - 31) =     22.49083  eV     1   --> A              
     e( 32 - 32) =     22.53833  eV     1   --> A              

 **************************************************************************

 **************************************************************************

                    xk=(  -0.15333,   0.26558,   0.00000  )

     Band symmetry, C_1 (1)     point group:

     e(  1 -  1) =    -18.36587  eV     1   --> A              
     e(  2 -  2) =    -18.27278  eV     1   --> A              
     e(  3 -  3) =     -7.78880  eV     1   --> A              
     e(  4 -  4) =     -7.75613  eV     1   --> A              
     e(  5 -  5) =     -6.51879  eV     1   --> A              
     e(  6 -  6) =     -6.49447  eV     1   --> A              
     e(  7 -  7) =     -6.49121  eV     1   --> A              
     e(  8 -  8) =     -5.78589  eV     1   --> A              
     e(  9 -  9) =      5.14584  eV     1   --> A              
     e( 10 - 10) =      5.58062  eV     1   --> A              
     e( 11 - 11) =      6.28522  eV     1   --> A              
     e( 12 - 12) =      6.33281  eV     1   --> A              
     e( 13 - 13) =      6.61749  eV     1   --> A              
     e( 14 - 14) =      7.52991  eV     1   --> A              
     e( 15 - 15) =      7.61740  eV     1   --> A              
     e( 16 - 16) =      9.17257  eV     1   --> A              
     e( 17 - 17) =      9.23690  eV     1   --> A              
     e( 18 - 18) =      9.44593  eV     1   --> A              
     e( 19 - 19) =     10.45820  eV     1   --> A              
     e( 20 - 20) =     10.73920  eV     1   --> A              
     e( 21 - 21) =     10.84762  eV     1   --> A              
     e( 22 - 22) =     12.67588  eV     1   --> A              
     e( 23 - 23) =     14.41255  eV     1   --> A              
     e( 24 - 24) =     15.90395  eV     1   --> A              
     e( 25 - 25) =     16.18583  eV     1   --> A              
     e( 26 - 26) =     16.63168  eV     1   --> A              
     e( 27 - 27) =     17.95709  eV     1   --> A              
     e( 28 - 28) =     18.56127  eV     1   --> A              
     e( 29 - 29) =     19.11815  eV     1   --> A              
     e( 30 - 30) =     22.32247  eV     1   --> A              
     e( 31 - 31) =     22.59134  eV     1   --> A              
     e( 32 - 32) =     22.91532  eV     1   --> A              

 **************************************************************************

 **************************************************************************

                    xk=(  -0.14667,   0.25403,   0.00000  )

     Band symmetry, C_1 (1)     point group:

     e(  1 -  1) =    -18.50489  eV     1   --> A              
     e(  2 -  2) =    -18.41093  eV     1   --> A              
     e(  3 -  3) =     -7.54293  eV     1   --> A              
     e(  4 -  4) =     -7.51139  eV     1   --> A              
     e(  5 -  5) =     -6.66201  eV     1   --> A              
     e(  6 -  6) =     -6.30963  eV     1   --> A              
     e(  7 -  7) =     -6.28731  eV     1   --> A              
     e(  8 -  8) =     -5.94433  eV     1   --> A              
     e(  9 -  9) =      4.95637  eV     1   --> A              
     e( 10 - 10) =      5.38974  eV     1   --> A              
     e( 11 - 11) =      6.13818  eV     1   --> A              
     e( 12 - 12) =      6.58474  eV     1   --> A              
     e( 13 - 13) =      6.90682  eV     1   --> A              
     e( 14 - 14) =      7.33741  eV     1   --> A              
     e( 15 - 15) =      7.44080  eV     1   --> A              
     e( 16 - 16) =      9.04082  eV     1   --> A              
     e( 17 - 17) =      9.09985  eV     1   --> A              
     e( 18 - 18) =      9.27816  eV     1   --> A              
     e( 19 - 19) =     10.27132  eV     1   --> A              
     e( 20 - 20) =     10.63768  eV     1   --> A              
     e( 21 - 21) =     10.73674  eV     1   --> A              
     e( 22 - 22) =     12.51998  eV     1   --> A              
     e( 23 - 23) =     14.23291  eV     1   --> A              
     e( 24 - 24) =     15.56890  eV     1   --> A              
     e( 25 - 25) =     15.82755  eV     1   --> A              
     e( 26 - 26) =     16.66432  eV     1   --> A              
     e( 27 - 27) =     18.21748  eV     1   --> A              
     e( 28 - 28) =     18.69414  eV     1   --> A              
     e( 29 - 29) =     19.02258  eV     1   --> A              
     e( 30 - 30) =     22.56169  eV     1   --> A              
     e( 31 - 31) =     22.64451  eV     1   --> A              
     e( 32 - 32) =     23.22108  eV     1   --> A              

 **************************************************************************

 **************************************************************************

                    xk=(  -0.14000,   0.24249,   0.00000  )

     Band symmetry, C_1 (1)     point group:

     e(  1 -  1) =    -18.63800  eV     1   --> A              
     e(  2 -  2) =    -18.54321  eV     1   --> A              
     e(  3 -  3) =     -7.29596  eV     1   --> A              
     e(  4 -  4) =     -7.26562  eV     1   --> A              
     e(  5 -  5) =     -6.81870  eV     1   --> A              
     e(  6 -  6) =     -6.10735  eV     1   --> A              
     e(  7 -  7) =     -6.10061  eV     1   --> A              
     e(  8 -  8) =     -6.08189  eV     1   --> A              
     e(  9 -  9) =      4.77516  eV     1   --> A              
     e( 10 - 10) =      5.20710  eV     1   --> A              
     e( 11 - 11) =      5.95214  eV     1   --> A              
     e( 12 - 12) =      6.88221  eV     1   --> A              
     e( 13 - 13) =      7.15330  eV     1   --> A              
     e( 14 - 14) =      7.19388  eV     1   --> A              
     e( 15 - 15) =      7.27107  eV     1   --> A              
     e( 16 - 16) =      8.91434  eV     1   --> A              
     e( 17 - 17) =      8.96978  eV     1   --> A              
     e( 18 - 18) =      9.11693  eV     1   --> A              
     e( 19 - 19) =     10.09217  eV     1   --> A              
     e( 20 - 20) =     10.53107  eV     1   --> A              
     e( 21 - 21) =     10.62144  eV     1   --> A              
     e( 22 - 22) =     12.36636  eV     1   --> A              
     e( 23 - 23) =     14.05971  eV     1   --> A              
     e( 24 - 24) =     15.23704  eV     1   --> A              
     e( 25 - 25) =     15.47667  eV     1   --> A              
     e( 26 - 26) =     16.64521  eV     1   --> A              
     e( 27 - 27) =     18.37592  eV     1   --> A              
     e( 28 - 28) =     18.90215  eV     1   --> A              
     e( 29 - 29) =     19.02962  eV     1   --> A              
     e( 30 - 30) =     22.67161  eV     1   --> A              
     e( 31 - 31) =     22.68841  eV     1   --> A              
     e( 32 - 32) =     23.23162  eV     1   --> A              

 **************************************************************************

 **************************************************************************

                    xk=(  -0.13333,   0.23094,   0.00000  )

     Band symmetry, C_1 (1)     point group:

     e(  1 -  1) =    -18.76516  eV     1   --> A              
     e(  2 -  2) =    -18.66958  eV     1   --> A              
     e(  3 -  3) =     -7.04840  eV     1   --> A              
     e(  4 -  4) =     -7.01929  eV     1   --> A              
     e(  5 -  5) =     -6.96883  eV     1   --> A              
     e(  6 -  6) =     -6.24288  eV     1   --> A              
     e(  7 -  7) =     -5.90811  eV     1   --> A              
     e(  8 -  8) =     -5.88723  eV     1   --> A              
     e(  9 -  9) =      4.60225  eV     1   --> A              
     e( 10 - 10) =      5.03275  eV     1   --> A              
     e( 11 - 11) =      5.77469  eV     1   --> A              
     e( 12 - 12) =      6.97762  eV     1   --> A              
     e( 13 - 13) =      7.10846  eV     1   --> A              
     e( 14 - 14) =      7.17684  eV     1   --> A              
     e( 15 - 15) =      7.47788  eV     1   --> A              
     e( 16 - 16) =      8.79295  eV     1   --> A              
     e( 17 - 17) =      8.84679  eV     1   --> A              
     e( 18 - 18) =      8.96304  eV     1   --> A              
     e( 19 - 19) =      9.92086  eV     1   --> A              
     e( 20 - 20) =     10.41856  eV     1   --> A              
     e( 21 - 21) =     10.50086  eV     1   --> A              
     e( 22 - 22) =     12.21637  eV     1   --> A              
     e( 23 - 23) =     13.89341  eV     1   --> A              
     e( 24 - 24) =     14.91168  eV     1   --> A              
     e( 25 - 25) =     15.13573  eV     1   --> A              
     e( 26 - 26) =     16.58773  eV     1   --> A              
     e( 27 - 27) =     18.37901  eV     1   --> A              
     e( 28 - 28) =     19.16874  eV     1   --> A              
     e( 29 - 29) =     19.18810  eV     1   --> A              
     e( 30 - 30) =     22.68182  eV     1   --> A              
     e( 31 - 31) =     22.69040  eV     1   --> A              
     e( 32 - 32) =     23.33033  eV     1   --> A              

 **************************************************************************

 **************************************************************************

                    xk=(  -0.12667,   0.21939,   0.00000  )

     Band symmetry, C_1 (1)     point group:

     e(  1 -  1) =    -18.88635  eV     1   --> A              
     e(  2 -  2) =    -18.79001  eV     1   --> A              
     e(  3 -  3) =     -7.11227  eV     1   --> A              
     e(  4 -  4) =     -6.80086  eV     1   --> A              
     e(  5 -  5) =     -6.77295  eV     1   --> A              
     e(  6 -  6) =     -6.38227  eV     1   --> A              
     e(  7 -  7) =     -5.71260  eV     1   --> A              
     e(  8 -  8) =     -5.69270  eV     1   --> A              
     e(  9 -  9) =      4.43767  eV     1   --> A              
     e( 10 - 10) =      4.86674  eV     1   --> A              
     e( 11 - 11) =      5.60585  eV     1   --> A              
     e( 12 - 12) =      6.81039  eV     1   --> A              
     e( 13 - 13) =      6.95318  eV     1   --> A              
     e( 14 - 14) =      7.46767  eV     1   --> A              
     e( 15 - 15) =      7.75793  eV     1   --> A              
     e( 16 - 16) =      8.67609  eV     1   --> A              
     e( 17 - 17) =      8.73099  eV     1   --> A              
     e( 18 - 18) =      8.81751  eV     1   --> A              
     e( 19 - 19) =      9.75746  eV     1   --> A              
     e( 20 - 20) =     10.29929  eV     1   --> A              
     e( 21 - 21) =     10.37413  eV     1   --> A              
     e( 22 - 22) =     12.07099  eV     1   --> A              
     e( 23 - 23) =     13.73434  eV     1   --> A              
     e( 24 - 24) =     14.59586  eV     1   --> A              
     e( 25 - 25) =     14.80714  eV     1   --> A              
     e( 26 - 26) =     16.50589  eV     1   --> A              
     e( 27 - 27) =     18.29455  eV     1   --> A              
     e( 28 - 28) =     19.42448  eV     1   --> A              
     e( 29 - 29) =     19.47646  eV     1   --> A              
     e( 30 - 30) =     22.61107  eV     1   --> A              
     e( 31 - 31) =     22.71470  eV     1   --> A              
     e( 32 - 32) =     23.44311  eV     1   --> A              

 **************************************************************************

 **************************************************************************

                    xk=(  -0.12000,   0.20785,   0.00000  )

     Band symmetry, C_1 (1)     point group:

     e(  1 -  1) =    -19.00150  eV     1   --> A              
     e(  2 -  2) =    -18.90444  eV     1   --> A              
     e(  3 -  3) =     -7.24884  eV     1   --> A              
     e(  4 -  4) =     -6.55393  eV     1   --> A              
     e(  5 -  5) =     -6.52719  eV     1   --> A              
     e(  6 -  6) =     -6.51510  eV     1   --> A              
     e(  7 -  7) =     -5.52145  eV     1   --> A              
     e(  8 -  8) =     -5.50242  eV     1   --> A              
     e(  9 -  9) =      4.28143  eV     1   --> A              
     e( 10 - 10) =      4.70909  eV     1   --> A              
     e( 11 - 11) =      5.44563  eV     1   --> A              
     e( 12 - 12) =      6.65165  eV     1   --> A              
     e( 13 - 13) =      6.80538  eV     1   --> A              
     e( 14 - 14) =      7.75381  eV     1   --> A              
     e( 15 - 15) =      8.03313  eV     1   --> A              
     e( 16 - 16) =      8.56269  eV     1   --> A              
     e( 17 - 17) =      8.62244  eV     1   --> A              
     e( 18 - 18) =      8.68184  eV     1   --> A              
     e( 19 - 19) =      9.60205  eV     1   --> A              
     e( 20 - 20) =     10.17245  eV     1   --> A              
     e( 21 - 21) =     10.24042  eV     1   --> A              
     e( 22 - 22) =     11.93099  eV     1   --> A              
     e( 23 - 23) =     13.58270  eV     1   --> A              
     e( 24 - 24) =     14.29247  eV     1   --> A              
     e( 25 - 25) =     14.49327  eV     1   --> A              
     e( 26 - 26) =     16.41028  eV     1   --> A              
     e( 27 - 27) =     18.18286  eV     1   --> A              
     e( 28 - 28) =     19.67150  eV     1   --> A              
     e( 29 - 29) =     19.81036  eV     1   --> A              
     e( 30 - 30) =     22.52611  eV     1   --> A              
     e( 31 - 31) =     22.75548  eV     1   --> A              
     e( 32 - 32) =     23.51932  eV     1   --> A              

 **************************************************************************

 **************************************************************************

                    xk=(  -0.11333,   0.19630,   0.00000  )

     Band symmetry, C_1 (1)     point group:

     e(  1 -  1) =    -19.11059  eV     1   --> A              
     e(  2 -  2) =    -19.01283  eV     1   --> A              
     e(  3 -  3) =     -7.37848  eV     1   --> A              
     e(  4 -  4) =     -6.64123  eV     1   --> A              
     e(  5 -  5) =     -6.30839  eV     1   --> A              
     e(  6 -  6) =     -6.28284  eV     1   --> A              
     e(  7 -  7) =     -5.33533  eV     1   --> A              
     e(  8 -  8) =     -5.31715  eV     1   --> A              
     e(  9 -  9) =      4.13357  eV     1   --> A              
     e( 10 - 10) =      4.55984  eV     1   --> A              
     e( 11 - 11) =      5.29405  eV     1   --> A              
     e( 12 - 12) =      6.50141  eV     1   --> A              
     e( 13 - 13) =      6.66521  eV     1   --> A              
     e( 14 - 14) =      8.03418  eV     1   --> A              
     e( 15 - 15) =      8.30256  eV     1   --> A              
     e( 16 - 16) =      8.45107  eV     1   --> A              
     e( 17 - 17) =      8.52114  eV     1   --> A              
     e( 18 - 18) =      8.55798  eV     1   --> A              
     e( 19 - 19) =      9.45467  eV     1   --> A              
     e( 20 - 20) =     10.03731  eV     1   --> A              
     e( 21 - 21) =     10.09899  eV     1   --> A              
     e( 22 - 22) =     11.79693  eV     1   --> A              
     e( 23 - 23) =     13.43869  eV     1   --> A              
     e( 24 - 24) =     14.00412  eV     1   --> A              
     e( 25 - 25) =     14.19624  eV     1   --> A              
     e( 26 - 26) =     16.30801  eV     1   --> A              
     e( 27 - 27) =     18.06464  eV     1   --> A              
     e( 28 - 28) =     19.90098  eV     1   --> A              
     e( 29 - 29) =     20.15683  eV     1   --> A              
     e( 30 - 30) =     22.44818  eV     1   --> A              
     e( 31 - 31) =     22.82100  eV     1   --> A              
     e( 32 - 32) =     23.54546  eV     1   --> A              

 **************************************************************************

 **************************************************************************

                    xk=(  -0.10667,   0.18475,   0.00000  )

[...]
     e( 11 - 11) =      9.46613  eV     1   --> A              
     e( 12 - 12) =     11.04626  eV     1   --> A              
     e( 13 - 13) =     11.78011  eV     1   --> A              
     e( 14 - 14) =     11.82110  eV     1   --> A              
     e( 15 - 15) =     12.42774  eV     1   --> A              
     e( 16 - 16) =     12.56889  eV     1   --> A              
     e( 17 - 17) =     12.81927  eV     1   --> A              
     e( 18 - 18) =     13.85007  eV     1   --> A              
     e( 19 - 19) =     14.06118  eV     1   --> A              
     e( 20 - 20) =     14.12345  eV     1   --> A              
     e( 21 - 21) =     14.60024  eV     1   --> A              
     e( 22 - 22) =     14.69297  eV     1   --> A              
     e( 23 - 23) =     15.31459  eV     1   --> A              
     e( 24 - 24) =     15.40129  eV     1   --> A              
     e( 25 - 25) =     15.84647  eV     1   --> A              
     e( 26 - 26) =     16.17431  eV     1   --> A              
     e( 27 - 27) =     16.39068  eV     1   --> A              
     e( 28 - 28) =     16.97801  eV     1   --> A              
     e( 29 - 29) =     16.97919  eV     1   --> A              
     e( 30 - 30) =     16.99809  eV     1   --> A              
     e( 31 - 31) =     17.25408  eV     1   --> A              
     e( 32 - 32) =     17.70261  eV     1   --> A              

 **************************************************************************

 **************************************************************************

                    xk=(  -0.28667,   0.57735,   0.00000  )

     Band symmetry, C_1 (1)     point group:

     e(  1 -  1) =    -13.53224  eV     1   --> A              
     e(  2 -  2) =    -13.46630  eV     1   --> A              
     e(  3 -  3) =    -12.86916  eV     1   --> A              
     e(  4 -  4) =    -12.80892  eV     1   --> A              
     e(  5 -  5) =    -10.77914  eV     1   --> A              
     e(  6 -  6) =    -10.73523  eV     1   --> A              
     e(  7 -  7) =     -1.35304  eV     1   --> A              
     e(  8 -  8) =     -0.83835  eV     1   --> A              
     e(  9 -  9) =     -0.15918  eV     1   --> A              
     e( 10 - 10) =      0.34428  eV     1   --> A              
     e( 11 - 11) =      9.42917  eV     1   --> A              
     e( 12 - 12) =     11.03271  eV     1   --> A              
     e( 13 - 13) =     11.81831  eV     1   --> A              
     e( 14 - 14) =     11.88854  eV     1   --> A              
     e( 15 - 15) =     12.50975  eV     1   --> A              
     e( 16 - 16) =     12.70159  eV     1   --> A              
     e( 17 - 17) =     12.87115  eV     1   --> A              
     e( 18 - 18) =     13.92984  eV     1   --> A              
     e( 19 - 19) =     14.14626  eV     1   --> A              
     e( 20 - 20) =     14.19750  eV     1   --> A              
     e( 21 - 21) =     14.62252  eV     1   --> A              
     e( 22 - 22) =     14.76931  eV     1   --> A              
     e( 23 - 23) =     15.33118  eV     1   --> A              
     e( 24 - 24) =     15.44915  eV     1   --> A              
     e( 25 - 25) =     15.88690  eV     1   --> A              
     e( 26 - 26) =     16.03523  eV     1   --> A              
     e( 27 - 27) =     16.19232  eV     1   --> A              
     e( 28 - 28) =     16.78137  eV     1   --> A              
     e( 29 - 29) =     16.96079  eV     1   --> A              
     e( 30 - 30) =     17.05764  eV     1   --> A              
     e( 31 - 31) =     17.27344  eV     1   --> A              
     e( 32 - 32) =     17.70196  eV     1   --> A              

 **************************************************************************

 **************************************************************************

                    xk=(  -0.29333,   0.57735,   0.00000  )

     Band symmetry, C_1 (1)     point group:

     e(  1 -  1) =    -13.47395  eV     1   --> A              
     e(  2 -  2) =    -13.40842  eV     1   --> A              
     e(  3 -  3) =    -12.87335  eV     1   --> A              
     e(  4 -  4) =    -12.81282  eV     1   --> A              
     e(  5 -  5) =    -10.85273  eV     1   --> A              
     e(  6 -  6) =    -10.80856  eV     1   --> A              
     e(  7 -  7) =     -1.27118  eV     1   --> A              
     e(  8 -  8) =     -0.75787  eV     1   --> A              
     e(  9 -  9) =     -0.23379  eV     1   --> A              
     e( 10 - 10) =      0.26836  eV     1   --> A              
     e( 11 - 11) =      9.39721  eV     1   --> A              
     e( 12 - 12) =     11.02096  eV     1   --> A              
     e( 13 - 13) =     11.85521  eV     1   --> A              
     e( 14 - 14) =     11.94452  eV     1   --> A              
     e( 15 - 15) =     12.58592  eV     1   --> A              
     e( 16 - 16) =     12.81893  eV     1   --> A              
     e( 17 - 17) =     12.91993  eV     1   --> A              
     e( 18 - 18) =     14.01111  eV     1   --> A              
     e( 19 - 19) =     14.23181  eV     1   --> A              
     e( 20 - 20) =     14.27855  eV     1   --> A              
     e( 21 - 21) =     14.64386  eV     1   --> A              
     e( 22 - 22) =     14.84767  eV     1   --> A              
     e( 23 - 23) =     15.31960  eV     1   --> A              
     e( 24 - 24) =     15.49680  eV     1   --> A              
     e( 25 - 25) =     15.92156  eV     1   --> A              
     e( 26 - 26) =     15.93539  eV     1   --> A              
     e( 27 - 27) =     15.99984  eV     1   --> A              
     e( 28 - 28) =     16.59908  eV     1   --> A              
     e( 29 - 29) =     16.93344  eV     1   --> A              
     e( 30 - 30) =     17.10006  eV     1   --> A              
     e( 31 - 31) =     17.31611  eV     1   --> A              
     e( 32 - 32) =     17.67098  eV     1   --> A              

 **************************************************************************

 **************************************************************************

                    xk=(  -0.30000,   0.57735,   0.00000  )

     Band symmetry, C_1 (1)     point group:

     e(  1 -  1) =    -13.41434  eV     1   --> A              
     e(  2 -  2) =    -13.34924  eV     1   --> A              
     e(  3 -  3) =    -12.88605  eV     1   --> A              
     e(  4 -  4) =    -12.82519  eV     1   --> A              
     e(  5 -  5) =    -10.91624  eV     1   --> A              
     e(  6 -  6) =    -10.87189  eV     1   --> A              
     e(  7 -  7) =     -1.18754  eV     1   --> A              
     e(  8 -  8) =     -0.67565  eV     1   --> A              
     e(  9 -  9) =     -0.31149  eV     1   --> A              
     e( 10 - 10) =      0.18983  eV     1   --> A              
     e( 11 - 11) =      9.37029  eV     1   --> A              
     e( 12 - 12) =     11.01117  eV     1   --> A              
     e( 13 - 13) =     11.89063  eV     1   --> A              
     e( 14 - 14) =     11.98960  eV     1   --> A              
     e( 15 - 15) =     12.65345  eV     1   --> A              
     e( 16 - 16) =     12.91864  eV     1   --> A              
     e( 17 - 17) =     12.96494  eV     1   --> A              
     e( 18 - 18) =     14.09388  eV     1   --> A              
     e( 19 - 19) =     14.31698  eV     1   --> A              
     e( 20 - 20) =     14.36682  eV     1   --> A              
     e( 21 - 21) =     14.66546  eV     1   --> A              
     e( 22 - 22) =     14.92810  eV     1   --> A              
     e( 23 - 23) =     15.27108  eV     1   --> A              
     e( 24 - 24) =     15.53685  eV     1   --> A              
     e( 25 - 25) =     15.82174  eV     1   --> A              
     e( 26 - 26) =     15.83464  eV     1   --> A              
     e( 27 - 27) =     15.99148  eV     1   --> A              
     e( 28 - 28) =     16.43985  eV     1   --> A              
     e( 29 - 29) =     16.88984  eV     1   --> A              
     e( 30 - 30) =     17.12670  eV     1   --> A              
     e( 31 - 31) =     17.38087  eV     1   --> A              
     e( 32 - 32) =     17.60279  eV     1   --> A              

 **************************************************************************

 **************************************************************************

                    xk=(  -0.30667,   0.57735,   0.00000  )

     Band symmetry, C_1 (1)     point group:

     e(  1 -  1) =    -13.35340  eV     1   --> A              
     e(  2 -  2) =    -13.28875  eV     1   --> A              
     e(  3 -  3) =    -12.90812  eV     1   --> A              
     e(  4 -  4) =    -12.84691  eV     1   --> A              
     e(  5 -  5) =    -10.96879  eV     1   --> A              
     e(  6 -  6) =    -10.92428  eV     1   --> A              
     e(  7 -  7) =     -1.10214  eV     1   --> A              
     e(  8 -  8) =     -0.59171  eV     1   --> A              
     e(  9 -  9) =     -0.39221  eV     1   --> A              
     e( 10 - 10) =      0.10875  eV     1   --> A              
     e( 11 - 11) =      9.34840  eV     1   --> A              
     e( 12 - 12) =     11.00339  eV     1   --> A              
     e( 13 - 13) =     11.92437  eV     1   --> A              
     e( 14 - 14) =     12.02382  eV     1   --> A              
     e( 15 - 15) =     12.71002  eV     1   --> A              
     e( 16 - 16) =     12.99888  eV     1   --> A              
     e( 17 - 17) =     13.00546  eV     1   --> A              
     e( 18 - 18) =     14.17812  eV     1   --> A              
     e( 19 - 19) =     14.40029  eV     1   --> A              
     e( 20 - 20) =     14.46207  eV     1   --> A              
     e( 21 - 21) =     14.68864  eV     1   --> A              
     e( 22 - 22) =     15.01064  eV     1   --> A              
     e( 23 - 23) =     15.18802  eV     1   --> A              
     e( 24 - 24) =     15.52126  eV     1   --> A              
     e( 25 - 25) =     15.70659  eV     1   --> A              
     e( 26 - 26) =     15.76013  eV     1   --> A              
     e( 27 - 27) =     16.05463  eV     1   --> A              
     e( 28 - 28) =     16.31641  eV     1   --> A              
     e( 29 - 29) =     16.82143  eV     1   --> A              
     e( 30 - 30) =     17.14536  eV     1   --> A              
     e( 31 - 31) =     17.46005  eV     1   --> A              
     e( 32 - 32) =     17.49798  eV     1   --> A              

 **************************************************************************

 **************************************************************************

                    xk=(  -0.31333,   0.57735,   0.00000  )

     Band symmetry, C_1 (1)     point group:

     e(  1 -  1) =    -13.29117  eV     1   --> A              
     e(  2 -  2) =    -13.22696  eV     1   --> A              
     e(  3 -  3) =    -12.94022  eV     1   --> A              
     e(  4 -  4) =    -12.87861  eV     1   --> A              
     e(  5 -  5) =    -11.00970  eV     1   --> A              
     e(  6 -  6) =    -10.96511  eV     1   --> A              
     e(  7 -  7) =     -1.01497  eV     1   --> A              
     e(  8 -  8) =     -0.50604  eV     1   --> A              
     e(  9 -  9) =     -0.47587  eV     1   --> A              
     e( 10 - 10) =      0.02521  eV     1   --> A              
     e( 11 - 11) =      9.33150  eV     1   --> A              
     e( 12 - 12) =     10.99761  eV     1   --> A              
     e( 13 - 13) =     11.95631  eV     1   --> A              
     e( 14 - 14) =     12.04683  eV     1   --> A              
     e( 15 - 15) =     12.75403  eV     1   --> A              
     e( 16 - 16) =     13.04082  eV     1   --> A              
     e( 17 - 17) =     13.05837  eV     1   --> A              
     e( 18 - 18) =     14.26384  eV     1   --> A              
     e( 19 - 19) =     14.47876  eV     1   --> A              
     e( 20 - 20) =     14.56335  eV     1   --> A              
     e( 21 - 21) =     14.71469  eV     1   --> A              
     e( 22 - 22) =     15.08318  eV     1   --> A              
     e( 23 - 23) =     15.09533  eV     1   --> A              
     e( 24 - 24) =     15.38824  eV     1   --> A              
     e( 25 - 25) =     15.67550  eV     1   --> A              
     e( 26 - 26) =     15.71609  eV     1   --> A              
     e( 27 - 27) =     16.12427  eV     1   --> A              
     e( 28 - 28) =     16.23967  eV     1   --> A              
     e( 29 - 29) =     16.72377  eV     1   --> A              
     e( 30 - 30) =     17.16217  eV     1   --> A              
     e( 31 - 31) =     17.41680  eV     1   --> A              
     e( 32 - 32) =     17.41693  eV     1   --> A              

 **************************************************************************

 **************************************************************************

                    xk=(  -0.32000,   0.57735,   0.00000  )

     Band symmetry, C_1 (1)     point group:

     e(  1 -  1) =    -13.22764  eV     1   --> A              
     e(  2 -  2) =    -13.16388  eV     1   --> A              
     e(  3 -  3) =    -12.98257  eV     1   --> A              
     e(  4 -  4) =    -12.92054  eV     1   --> A              
     e(  5 -  5) =    -11.03857  eV     1   --> A              
     e(  6 -  6) =    -10.99397  eV     1   --> A              
     e(  7 -  7) =     -0.92605  eV     1   --> A              
     e(  8 -  8) =     -0.56242  eV     1   --> A              
     e(  9 -  9) =     -0.41866  eV     1   --> A              
     e( 10 - 10) =     -0.06076  eV     1   --> A              
     e( 11 - 11) =      9.31954  eV     1   --> A              
     e( 12 - 12) =     10.99375  eV     1   --> A              
     e( 13 - 13) =     11.98625  eV     1   --> A              
     e( 14 - 14) =     12.05783  eV     1   --> A              
     e( 15 - 15) =     12.78476  eV     1   --> A              
     e( 16 - 16) =     13.07042  eV     1   --> A              
     e( 17 - 17) =     13.09655  eV     1   --> A              
     e( 18 - 18) =     14.35105  eV     1   --> A              
     e( 19 - 19) =     14.54500  eV     1   --> A              
     e( 20 - 20) =     14.66861  eV     1   --> A              
     e( 21 - 21) =     14.74484  eV     1   --> A              
     e( 22 - 22) =     14.97228  eV     1   --> A              
     e( 23 - 23) =     15.18223  eV     1   --> A              
     e( 24 - 24) =     15.22441  eV     1   --> A              
     e( 25 - 25) =     15.57329  eV     1   --> A              
     e( 26 - 26) =     15.76236  eV     1   --> A              
     e( 27 - 27) =     16.19982  eV     1   --> A              
     e( 28 - 28) =     16.20561  eV     1   --> A              
     e( 29 - 29) =     16.60302  eV     1   --> A              
     e( 30 - 30) =     17.18027  eV     1   --> A              
     e( 31 - 31) =     17.33191  eV     1   --> A              
     e( 32 - 32) =     17.37018  eV     1   --> A              

 **************************************************************************

 **************************************************************************

                    xk=(  -0.32667,   0.57735,   0.00000  )

     Band symmetry, C_1 (1)     point group:

     e(  1 -  1) =    -13.16280  eV     1   --> A              
     e(  2 -  2) =    -13.09947  eV     1   --> A              
     e(  3 -  3) =    -13.03507  eV     1   --> A              
     e(  4 -  4) =    -12.97264  eV     1   --> A              
     e(  5 -  5) =    -11.05558  eV     1   --> A              
     e(  6 -  6) =    -11.01097  eV     1   --> A              
     e(  7 -  7) =     -0.83539  eV     1   --> A              
     e(  8 -  8) =     -0.65175  eV     1   --> A              
     e(  9 -  9) =     -0.32959  eV     1   --> A              
     e( 10 - 10) =     -0.14905  eV     1   --> A              
     e( 11 - 11) =      9.31244  eV     1   --> A              
     e( 12 - 12) =     10.99163  eV     1   --> A              
     e( 13 - 13) =     12.01406  eV     1   --> A              
     e( 14 - 14) =     12.05563  eV     1   --> A              
     e( 15 - 15) =     12.80233  eV     1   --> A              
     e( 16 - 16) =     13.09381  eV     1   --> A              
     e( 17 - 17) =     13.11350  eV     1   --> A              
     e( 18 - 18) =     14.43976  eV     1   --> A              
     e( 19 - 19) =     14.57665  eV     1   --> A              
     e( 20 - 20) =     14.77179  eV     1   --> A              
     e( 21 - 21) =     14.78015  eV     1   --> A              
     e( 22 - 22) =     14.88022  eV     1   --> A              
     e( 23 - 23) =     15.06594  eV     1   --> A              
     e( 24 - 24) =     15.27138  eV     1   --> A              
     e( 25 - 25) =     15.46406  eV     1   --> A              
     e( 26 - 26) =     15.80730  eV     1   --> A              
     e( 27 - 27) =     16.19668  eV     1   --> A              
     e( 28 - 28) =     16.28078  eV     1   --> A              
     e( 29 - 29) =     16.47545  eV     1   --> A              
     e( 30 - 30) =     17.20119  eV     1   --> A              
     e( 31 - 31) =     17.26578  eV     1   --> A              
     e( 32 - 32) =     17.34877  eV     1   --> A              

 **************************************************************************

 **************************************************************************

                    xk=(  -0.33333,   0.57735,   0.00000  )

     Band symmetry, C_1 (1)     point group:

     e(  1 -  1) =    -13.09723  eV     1   --> A              
     e(  2 -  2) =    -13.09667  eV     1   --> A              
     e(  3 -  3) =    -13.03436  eV     1   --> A              
     e(  4 -  4) =    -13.03380  eV     1   --> A              
     e(  5 -  5) =    -11.06115  eV     1   --> A              
     e(  6 -  6) =    -11.01656  eV     1   --> A              
     e(  7 -  7) =     -0.74371  eV     1   --> A              
     e(  8 -  8) =     -0.74301  eV     1   --> A              
     e(  9 -  9) =     -0.23956  eV     1   --> A              
     e( 10 - 10) =     -0.23882  eV     1   --> A              
     e( 11 - 11) =      9.31009  eV     1   --> A              
     e( 12 - 12) =     10.99099  eV     1   --> A              
     e( 13 - 13) =     12.03897  eV     1   --> A              
     e( 14 - 14) =     12.03957  eV     1   --> A              
     e( 15 - 15) =     12.80779  eV     1   --> A              
     e( 16 - 16) =     13.10993  eV     1   --> A              
     e( 17 - 17) =     13.11061  eV     1   --> A              
     e( 18 - 18) =     14.52982  eV     1   --> A              
     e( 19 - 19) =     14.52996  eV     1   --> A              
     e( 20 - 20) =     14.82095  eV     1   --> A              
     e( 21 - 21) =     14.82142  eV     1   --> A              
     e( 22 - 22) =     14.84791  eV     1   --> A              
     e( 23 - 23) =     14.96856  eV     1   --> A              
     e( 24 - 24) =     15.36270  eV     1   --> A              
     e( 25 - 25) =     15.36283  eV     1   --> A              
     e( 26 - 26) =     15.82895  eV     1   --> A              
     e( 27 - 27) =     16.19620  eV     1   --> A              
     e( 28 - 28) =     16.36650  eV     1   --> A              
     e( 29 - 29) =     16.36667  eV     1   --> A              
     e( 30 - 30) =     17.22508  eV     1   --> A              
     e( 31 - 31) =     17.22573  eV     1   --> A              
     e( 32 - 32) =     17.34327  eV     1   --> A              

 **************************************************************************
