
     Program PWSCF v.5.1 starts on  4Apr2020 at 17: 4:12 

     This program is part of the open-source Quantum ESPRESSO suite
     for quantum simulation of materials; please cite
         "P. Giannozzi et al., J. Phys.:Condens. Matter 21 395502 (2009);
          URL http://www.quantum-espresso.org", 
     in publications or presentations arising from this work. More details at
     http://www.quantum-espresso.org/quote

     Parallel version (MPI), running on     1 processors
     Waiting for input...
     Reading input from standard input

     Current dimensions of program PWSCF are:
     Max number of different atomic species (ntypx) = 10
     Max number of k-points (npk) =  40000
     Max angular momentum in pseudopotentials (lmaxx) =  3

     Atomic positions and unit cell read from directory:
     ../tmp/graphene.save/


     IMPORTANT: XC functional enforced from input :
     Exchange-correlation      = PBE ( 1  4  3  4 0)
     Any further DFT definition will be discarded
     Please, verify this is what you really want

               file C.pbe-rrkjus.UPF: wavefunction(s)  2S 2P renormalized

     Subspace diagonalization in iterative solution of the eigenvalue problem:
     a serial algorithm will be used


     G-vector sticks info
     --------------------
     sticks:   dense  smooth     PW     G-vecs:    dense   smooth      PW
     Sum         595     241     85                96043    24369    4587



     bravais-lattice index     =           12
     lattice parameter (alat)  =       4.6627  a.u.
     unit-cell volume          =     711.6007 (a.u.)^3
     number of atoms/cell      =            4
     number of atomic types    =            1
     number of electrons       =        16.00
     number of Kohn-Sham states=           32
     kinetic-energy cutoff     =      40.0000  Ry
     charge density cutoff     =     400.0000  Ry
     Exchange-correlation      = PBE ( 1  4  3  4 0)

     celldm(1)=   4.662710  celldm(2)=   1.000000  celldm(3)=   8.105698
     celldm(4)=  -0.500000  celldm(5)=   0.000000  celldm(6)=   0.000000

     crystal axes: (cart. coord. in units of alat)
               a(1) = (   1.000000   0.000000   0.000000 )  
               a(2) = (  -0.500000   0.866025   0.000000 )  
               a(3) = (   0.000000   0.000000   8.105698 )  

     reciprocal axes: (cart. coord. in units 2 pi/alat)
               b(1) = (  1.000000  0.577350 -0.000000 )  
               b(2) = (  0.000000  1.154701  0.000000 )  
               b(3) = (  0.000000 -0.000000  0.123370 )  


     PseudoPot. # 1 for C  read from file:
     ../pseudo/C.pbe-rrkjus.UPF
     MD5 check sum: 00fb224312de0c5b6853bd333518df6f
     Pseudo is Ultrasoft, Zval =  4.0
     Generated by new atomic code, or converted to UPF format
     Using radial grid of  627 points,  4 beta functions with: 
                l(1) =   0
                l(2) =   0
                l(3) =   1
                l(4) =   1
     Q(r) pseudized with 0 coefficients 


     atomic species   valence    mass     pseudopotential
        C              4.00    12.01100     C ( 1.00)

      2 Sym. Ops. (no inversion) found
          (note:  6 additional sym.ops. were found but ignored
           their fractional translations are incommensurate with FFT grid)

                                    s                        frac. trans.

      isym =  1     identity                                     

 cryst.   s( 1) = (     1          0          0      )
                  (     0          1          0      )
                  (     0          0          1      )

 cart.    s( 1) = (  1.0000000  0.0000000  0.0000000 )
                  (  0.0000000  1.0000000  0.0000000 )
                  (  0.0000000  0.0000000  1.0000000 )


      isym =  2     inv. 180 deg rotation - cart. axis [1,0,0]   

 cryst.   s( 2) = (    -1          0          0      )
                  (     1          1          0      )
                  (     0          0          1      )

 cart.    s( 2) = ( -1.0000000  0.0000000  0.0000000 )
                  (  0.0000000  1.0000000  0.0000000 )
                  (  0.0000000  0.0000000  1.0000000 )


     point group C_s (m)    
     there are  2 classes
     the character table:

       E     s    
A'     1.00  1.00
A''    1.00 -1.00

     the symmetry operations in each class:
     E        1
     s        2

   Cartesian axes

     site n.     atom                  positions (alat units)
         1           C   tau(   1) = (   0.0000000   0.0000000   2.0264246  )
         2           C   tau(   2) = (   0.0000000   0.5773284   2.0264246  )
         3           C   tau(   3) = (   0.0000000   0.0000000   3.4530275  )
         4           C   tau(   4) = (   0.0000000   0.5773284   3.4530275  )

   Crystallographic axes

     site n.     atom                  positions (cryst. coord.)
         1           C   tau(   1) = (  0.0000000  0.0000000  0.2500000  )
         2           C   tau(   2) = (  0.3333207  0.6666414  0.2500000  )
         3           C   tau(   3) = (  0.0000000  0.0000000  0.4260000  )
         4           C   tau(   4) = (  0.3333207  0.6666414  0.4260000  )

     number of k points=   151  Marzari-Vanderbilt smearing, width (Ry)=  0.0010
                       cart. coord. in units 2pi/alat
        k(    1) = (  -0.3333333   0.5773503   0.0000000), wk =   0.0000000
        k(    2) = (  -0.3266667   0.5658033   0.0000000), wk =   0.0002118
        k(    3) = (  -0.3200000   0.5542563   0.0000000), wk =   0.0004235
        k(    4) = (  -0.3133333   0.5427093   0.0000000), wk =   0.0006353
        k(    5) = (  -0.3066667   0.5311622   0.0000000), wk =   0.0008470
        k(    6) = (  -0.3000000   0.5196152   0.0000000), wk =   0.0010588
        k(    7) = (  -0.2933333   0.5080682   0.0000000), wk =   0.0012705
        k(    8) = (  -0.2866667   0.4965212   0.0000000), wk =   0.0014823
        k(    9) = (  -0.2800000   0.4849742   0.0000000), wk =   0.0016940
        k(   10) = (  -0.2733333   0.4734272   0.0000000), wk =   0.0019058
        k(   11) = (  -0.2666667   0.4618802   0.0000000), wk =   0.0021176
        k(   12) = (  -0.2600000   0.4503332   0.0000000), wk =   0.0023293
        k(   13) = (  -0.2533333   0.4387862   0.0000000), wk =   0.0025411
        k(   14) = (  -0.2466667   0.4272392   0.0000000), wk =   0.0027528
        k(   15) = (  -0.2400000   0.4156922   0.0000000), wk =   0.0029646
        k(   16) = (  -0.2333333   0.4041452   0.0000000), wk =   0.0031763
        k(   17) = (  -0.2266667   0.3925982   0.0000000), wk =   0.0033881
        k(   18) = (  -0.2200000   0.3810512   0.0000000), wk =   0.0035998
        k(   19) = (  -0.2133333   0.3695042   0.0000000), wk =   0.0038116
        k(   20) = (  -0.2066667   0.3579572   0.0000000), wk =   0.0040234
        k(   21) = (  -0.2000000   0.3464102   0.0000000), wk =   0.0042351
        k(   22) = (  -0.1933333   0.3348632   0.0000000), wk =   0.0044469
        k(   23) = (  -0.1866667   0.3233162   0.0000000), wk =   0.0046586
        k(   24) = (  -0.1800000   0.3117691   0.0000000), wk =   0.0048704
        k(   25) = (  -0.1733333   0.3002221   0.0000000), wk =   0.0050821
        k(   26) = (  -0.1666667   0.2886751   0.0000000), wk =   0.0052939
        k(   27) = (  -0.1600000   0.2771281   0.0000000), wk =   0.0055056
        k(   28) = (  -0.1533333   0.2655811   0.0000000), wk =   0.0057174
        k(   29) = (  -0.1466667   0.2540341   0.0000000), wk =   0.0059292
        k(   30) = (  -0.1400000   0.2424871   0.0000000), wk =   0.0061409
        k(   31) = (  -0.1333333   0.2309401   0.0000000), wk =   0.0063527
        k(   32) = (  -0.1266667   0.2193931   0.0000000), wk =   0.0065644
        k(   33) = (  -0.1200000   0.2078461   0.0000000), wk =   0.0067762
        k(   34) = (  -0.1133333   0.1962991   0.0000000), wk =   0.0069879
        k(   35) = (  -0.1066667   0.1847521   0.0000000), wk =   0.0071997
        k(   36) = (  -0.1000000   0.1732051   0.0000000), wk =   0.0074114
        k(   37) = (  -0.0933333   0.1616581   0.0000000), wk =   0.0076232
        k(   38) = (  -0.0866667   0.1501111   0.0000000), wk =   0.0078350
        k(   39) = (  -0.0800000   0.1385641   0.0000000), wk =   0.0080467
        k(   40) = (  -0.0733333   0.1270171   0.0000000), wk =   0.0082585
        k(   41) = (  -0.0666667   0.1154701   0.0000000), wk =   0.0084702
        k(   42) = (  -0.0600000   0.1039230   0.0000000), wk =   0.0086820
        k(   43) = (  -0.0533333   0.0923760   0.0000000), wk =   0.0088937
        k(   44) = (  -0.0466667   0.0808290   0.0000000), wk =   0.0091055
        k(   45) = (  -0.0400000   0.0692820   0.0000000), wk =   0.0093172
        k(   46) = (  -0.0333333   0.0577350   0.0000000), wk =   0.0095290
        k(   47) = (  -0.0266667   0.0461880   0.0000000), wk =   0.0097408
        k(   48) = (  -0.0200000   0.0346410   0.0000000), wk =   0.0099525
        k(   49) = (  -0.0133333   0.0230940   0.0000000), wk =   0.0101643
        k(   50) = (  -0.0066667   0.0115470   0.0000000), wk =   0.0103760
        k(   51) = (   0.0000000   0.0000000   0.0000000), wk =   0.0105878
        k(   52) = (   0.0000000   0.0115470   0.0000000), wk =   0.0107298
        k(   53) = (   0.0000000   0.0230940   0.0000000), wk =   0.0108719
        k(   54) = (   0.0000000   0.0346410   0.0000000), wk =   0.0110139
        k(   55) = (   0.0000000   0.0461880   0.0000000), wk =   0.0111560
        k(   56) = (   0.0000000   0.0577350   0.0000000), wk =   0.0112980
        k(   57) = (   0.0000000   0.0692820   0.0000000), wk =   0.0114401
        k(   58) = (   0.0000000   0.0808290   0.0000000), wk =   0.0115821
        k(   59) = (   0.0000000   0.0923760   0.0000000), wk =   0.0117242
        k(   60) = (   0.0000000   0.1039230   0.0000000), wk =   0.0118662
        k(   61) = (   0.0000000   0.1154701   0.0000000), wk =   0.0120083
        k(   62) = (   0.0000000   0.1270171   0.0000000), wk =   0.0121503
        k(   63) = (   0.0000000   0.1385641   0.0000000), wk =   0.0122924
        k(   64) = (   0.0000000   0.1501111   0.0000000), wk =   0.0124344
        k(   65) = (   0.0000000   0.1616581   0.0000000), wk =   0.0125765
        k(   66) = (   0.0000000   0.1732051   0.0000000), wk =   0.0127185
        k(   67) = (   0.0000000   0.1847521   0.0000000), wk =   0.0128606
        k(   68) = (   0.0000000   0.1962991   0.0000000), wk =   0.0130026
        k(   69) = (   0.0000000   0.2078461   0.0000000), wk =   0.0131447
        k(   70) = (   0.0000000   0.2193931   0.0000000), wk =   0.0132867
        k(   71) = (   0.0000000   0.2309401   0.0000000), wk =   0.0134288
        k(   72) = (   0.0000000   0.2424871   0.0000000), wk =   0.0135708
        k(   73) = (   0.0000000   0.2540341   0.0000000), wk =   0.0137129
        k(   74) = (   0.0000000   0.2655811   0.0000000), wk =   0.0138549
        k(   75) = (   0.0000000   0.2771281   0.0000000), wk =   0.0139970
        k(   76) = (   0.0000000   0.2886751   0.0000000), wk =   0.0141390
        k(   77) = (   0.0000000   0.3002221   0.0000000), wk =   0.0142811
        k(   78) = (   0.0000000   0.3117691   0.0000000), wk =   0.0144231
        k(   79) = (   0.0000000   0.3233162   0.0000000), wk =   0.0145652
        k(   80) = (   0.0000000   0.3348632   0.0000000), wk =   0.0147072
        k(   81) = (   0.0000000   0.3464102   0.0000000), wk =   0.0148493
        k(   82) = (   0.0000000   0.3579572   0.0000000), wk =   0.0149913
        k(   83) = (   0.0000000   0.3695042   0.0000000), wk =   0.0151334
        k(   84) = (   0.0000000   0.3810512   0.0000000), wk =   0.0152754
        k(   85) = (   0.0000000   0.3925982   0.0000000), wk =   0.0154175
        k(   86) = (   0.0000000   0.4041452   0.0000000), wk =   0.0155595
        k(   87) = (   0.0000000   0.4156922   0.0000000), wk =   0.0157016
        k(   88) = (   0.0000000   0.4272392   0.0000000), wk =   0.0158436
        k(   89) = (   0.0000000   0.4387862   0.0000000), wk =   0.0159857
        k(   90) = (   0.0000000   0.4503332   0.0000000), wk =   0.0161277
        k(   91) = (   0.0000000   0.4618802   0.0000000), wk =   0.0162698
        k(   92) = (   0.0000000   0.4734272   0.0000000), wk =   0.0164118
        k(   93) = (   0.0000000   0.4849742   0.0000000), wk =   0.0165539
        k(   94) = (   0.0000000   0.4965212   0.0000000), wk =   0.0166959
        k(   95) = (   0.0000000   0.5080682   0.0000000), wk =   0.0168380
        k(   96) = (   0.0000000   0.5196152   0.0000000), wk =   0.0169800
        k(   97) = (   0.0000000   0.5311622   0.0000000), wk =   0.0171221
        k(   98) = (   0.0000000   0.5427093   0.0000000), wk =   0.0172641
        k(   99) = (   0.0000000   0.5542563   0.0000000), wk =   0.0174062
        k(  100) = (   0.0000000   0.5658033   0.0000000), wk =   0.0175482
        k(  101) = (   0.0000000   0.5773503   0.0000000), wk =   0.0176903
        k(  102) = (  -0.0066667   0.5773503   0.0000000), wk =   0.0177962
        k(  103) = (  -0.0133333   0.5773503   0.0000000), wk =   0.0179020
        k(  104) = (  -0.0200000   0.5773503   0.0000000), wk =   0.0180079
        k(  105) = (  -0.0266667   0.5773503   0.0000000), wk =   0.0181138
        k(  106) = (  -0.0333333   0.5773503   0.0000000), wk =   0.0182197
        k(  107) = (  -0.0400000   0.5773503   0.0000000), wk =   0.0183256
        k(  108) = (  -0.0466667   0.5773503   0.0000000), wk =   0.0184314
        k(  109) = (  -0.0533333   0.5773503   0.0000000), wk =   0.0185373
        k(  110) = (  -0.0600000   0.5773503   0.0000000), wk =   0.0186432
        k(  111) = (  -0.0666667   0.5773503   0.0000000), wk =   0.0187491
        k(  112) = (  -0.0733333   0.5773503   0.0000000), wk =   0.0188549
        k(  113) = (  -0.0800000   0.5773503   0.0000000), wk =   0.0189608
        k(  114) = (  -0.0866667   0.5773503   0.0000000), wk =   0.0190667
        k(  115) = (  -0.0933333   0.5773503   0.0000000), wk =   0.0191726
        k(  116) = (  -0.1000000   0.5773503   0.0000000), wk =   0.0192785
        k(  117) = (  -0.1066667   0.5773503   0.0000000), wk =   0.0193843
        k(  118) = (  -0.1133333   0.5773503   0.0000000), wk =   0.0194902
        k(  119) = (  -0.1200000   0.5773503   0.0000000), wk =   0.0195961
        k(  120) = (  -0.1266667   0.5773503   0.0000000), wk =   0.0197020
        k(  121) = (  -0.1333333   0.5773503   0.0000000), wk =   0.0198078
        k(  122) = (  -0.1400000   0.5773503   0.0000000), wk =   0.0199137
        k(  123) = (  -0.1466667   0.5773503   0.0000000), wk =   0.0200196
        k(  124) = (  -0.1533333   0.5773503   0.0000000), wk =   0.0201255
        k(  125) = (  -0.1600000   0.5773503   0.0000000), wk =   0.0202314
        k(  126) = (  -0.1666667   0.5773503   0.0000000), wk =   0.0203372
        k(  127) = (  -0.1733333   0.5773503   0.0000000), wk =   0.0204431
        k(  128) = (  -0.1800000   0.5773503   0.0000000), wk =   0.0205490
        k(  129) = (  -0.1866667   0.5773503   0.0000000), wk =   0.0206549
        k(  130) = (  -0.1933333   0.5773503   0.0000000), wk =   0.0207607
        k(  131) = (  -0.2000000   0.5773503   0.0000000), wk =   0.0208666
        k(  132) = (  -0.2066667   0.5773503   0.0000000), wk =   0.0209725
        k(  133) = (  -0.2133333   0.5773503   0.0000000), wk =   0.0210784
        k(  134) = (  -0.2200000   0.5773503   0.0000000), wk =   0.0211843
        k(  135) = (  -0.2266667   0.5773503   0.0000000), wk =   0.0212901
        k(  136) = (  -0.2333333   0.5773503   0.0000000), wk =   0.0213960
        k(  137) = (  -0.2400000   0.5773503   0.0000000), wk =   0.0215019
        k(  138) = (  -0.2466667   0.5773503   0.0000000), wk =   0.0216078
        k(  139) = (  -0.2533333   0.5773503   0.0000000), wk =   0.0217136
        k(  140) = (  -0.2600000   0.5773503   0.0000000), wk =   0.0218195
        k(  141) = (  -0.2666667   0.5773503   0.0000000), wk =   0.0219254
        k(  142) = (  -0.2733333   0.5773503   0.0000000), wk =   0.0220313
        k(  143) = (  -0.2800000   0.5773503   0.0000000), wk =   0.0221372
        k(  144) = (  -0.2866667   0.5773503   0.0000000), wk =   0.0222430
        k(  145) = (  -0.2933333   0.5773503   0.0000000), wk =   0.0223489
        k(  146) = (  -0.3000000   0.5773503   0.0000000), wk =   0.0224548
        k(  147) = (  -0.3066667   0.5773503   0.0000000), wk =   0.0225607
        k(  148) = (  -0.3133333   0.5773503   0.0000000), wk =   0.0226665
        k(  149) = (  -0.3200000   0.5773503   0.0000000), wk =   0.0227724
        k(  150) = (  -0.3266667   0.5773503   0.0000000), wk =   0.0228783
        k(  151) = (  -0.3333333   0.5773503   0.0000000), wk =   0.0229842

                       cryst. coord.
        k(    1) = (  -0.3333333   0.6666667   0.0000000), wk =   0.0000000
        k(    2) = (  -0.3266667   0.6533333   0.0000000), wk =   0.0002118
        k(    3) = (  -0.3200000   0.6400000   0.0000000), wk =   0.0004235
        k(    4) = (  -0.3133333   0.6266667   0.0000000), wk =   0.0006353
        k(    5) = (  -0.3066667   0.6133333   0.0000000), wk =   0.0008470
        k(    6) = (  -0.3000000   0.6000000   0.0000000), wk =   0.0010588
        k(    7) = (  -0.2933333   0.5866667   0.0000000), wk =   0.0012705
        k(    8) = (  -0.2866667   0.5733333   0.0000000), wk =   0.0014823
        k(    9) = (  -0.2800000   0.5600000   0.0000000), wk =   0.0016940
        k(   10) = (  -0.2733333   0.5466667   0.0000000), wk =   0.0019058
        k(   11) = (  -0.2666667   0.5333333   0.0000000), wk =   0.0021176
        k(   12) = (  -0.2600000   0.5200000   0.0000000), wk =   0.0023293
        k(   13) = (  -0.2533333   0.5066667   0.0000000), wk =   0.0025411
        k(   14) = (  -0.2466667   0.4933333   0.0000000), wk =   0.0027528
        k(   15) = (  -0.2400000   0.4800000   0.0000000), wk =   0.0029646
        k(   16) = (  -0.2333333   0.4666667   0.0000000), wk =   0.0031763
        k(   17) = (  -0.2266667   0.4533333   0.0000000), wk =   0.0033881
        k(   18) = (  -0.2200000   0.4400000   0.0000000), wk =   0.0035998
        k(   19) = (  -0.2133333   0.4266667   0.0000000), wk =   0.0038116
        k(   20) = (  -0.2066667   0.4133333   0.0000000), wk =   0.0040234
        k(   21) = (  -0.2000000   0.4000000   0.0000000), wk =   0.0042351
        k(   22) = (  -0.1933333   0.3866667   0.0000000), wk =   0.0044469
        k(   23) = (  -0.1866667   0.3733333   0.0000000), wk =   0.0046586
        k(   24) = (  -0.1800000   0.3600000   0.0000000), wk =   0.0048704
        k(   25) = (  -0.1733333   0.3466667   0.0000000), wk =   0.0050821
        k(   26) = (  -0.1666667   0.3333333   0.0000000), wk =   0.0052939
        k(   27) = (  -0.1600000   0.3200000   0.0000000), wk =   0.0055056
        k(   28) = (  -0.1533333   0.3066667   0.0000000), wk =   0.0057174
        k(   29) = (  -0.1466667   0.2933333   0.0000000), wk =   0.0059292
        k(   30) = (  -0.1400000   0.2800000   0.0000000), wk =   0.0061409
        k(   31) = (  -0.1333333   0.2666667   0.0000000), wk =   0.0063527
        k(   32) = (  -0.1266667   0.2533333   0.0000000), wk =   0.0065644
        k(   33) = (  -0.1200000   0.2400000   0.0000000), wk =   0.0067762
        k(   34) = (  -0.1133333   0.2266667   0.0000000), wk =   0.0069879
        k(   35) = (  -0.1066667   0.2133333   0.0000000), wk =   0.0071997
        k(   36) = (  -0.1000000   0.2000000   0.0000000), wk =   0.0074114
        k(   37) = (  -0.0933333   0.1866667   0.0000000), wk =   0.0076232
        k(   38) = (  -0.0866667   0.1733333   0.0000000), wk =   0.0078350
        k(   39) = (  -0.0800000   0.1600000   0.0000000), wk =   0.0080467
        k(   40) = (  -0.0733333   0.1466667   0.0000000), wk =   0.0082585
        k(   41) = (  -0.0666667   0.1333333   0.0000000), wk =   0.0084702
        k(   42) = (  -0.0600000   0.1200000   0.0000000), wk =   0.0086820
        k(   43) = (  -0.0533333   0.1066667   0.0000000), wk =   0.0088937
        k(   44) = (  -0.0466667   0.0933333   0.0000000), wk =   0.0091055
        k(   45) = (  -0.0400000   0.0800000   0.0000000), wk =   0.0093172
        k(   46) = (  -0.0333333   0.0666667   0.0000000), wk =   0.0095290
        k(   47) = (  -0.0266667   0.0533333   0.0000000), wk =   0.0097408
        k(   48) = (  -0.0200000   0.0400000   0.0000000), wk =   0.0099525
        k(   49) = (  -0.0133333   0.0266667   0.0000000), wk =   0.0101643
        k(   50) = (  -0.0066667   0.0133333   0.0000000), wk =   0.0103760
        k(   51) = (   0.0000000   0.0000000   0.0000000), wk =   0.0105878
        k(   52) = (   0.0000000   0.0100000   0.0000000), wk =   0.0107298
        k(   53) = (   0.0000000   0.0200000   0.0000000), wk =   0.0108719
        k(   54) = (   0.0000000   0.0300000   0.0000000), wk =   0.0110139
        k(   55) = (   0.0000000   0.0400000   0.0000000), wk =   0.0111560
        k(   56) = (   0.0000000   0.0500000   0.0000000), wk =   0.0112980
        k(   57) = (   0.0000000   0.0600000   0.0000000), wk =   0.0114401
        k(   58) = (   0.0000000   0.0700000   0.0000000), wk =   0.0115821
        k(   59) = (   0.0000000   0.0800000   0.0000000), wk =   0.0117242
        k(   60) = (   0.0000000   0.0900000   0.0000000), wk =   0.0118662
        k(   61) = (   0.0000000   0.1000000   0.0000000), wk =   0.0120083
        k(   62) = (   0.0000000   0.1100000   0.0000000), wk =   0.0121503
        k(   63) = (   0.0000000   0.1200000   0.0000000), wk =   0.0122924
        k(   64) = (   0.0000000   0.1300000   0.0000000), wk =   0.0124344
        k(   65) = (   0.0000000   0.1400000   0.0000000), wk =   0.0125765
        k(   66) = (   0.0000000   0.1500000   0.0000000), wk =   0.0127185
        k(   67) = (   0.0000000   0.1600000   0.0000000), wk =   0.0128606
        k(   68) = (   0.0000000   0.1700000   0.0000000), wk =   0.0130026
        k(   69) = (   0.0000000   0.1800000   0.0000000), wk =   0.0131447
        k(   70) = (   0.0000000   0.1900000   0.0000000), wk =   0.0132867
        k(   71) = (   0.0000000   0.2000000   0.0000000), wk =   0.0134288
        k(   72) = (   0.0000000   0.2100000   0.0000000), wk =   0.0135708
        k(   73) = (   0.0000000   0.2200000   0.0000000), wk =   0.0137129
        k(   74) = (   0.0000000   0.2300000   0.0000000), wk =   0.0138549
        k(   75) = (   0.0000000   0.2400000   0.0000000), wk =   0.0139970
        k(   76) = (   0.0000000   0.2500000   0.0000000), wk =   0.0141390
        k(   77) = (   0.0000000   0.2600000   0.0000000), wk =   0.0142811
        k(   78) = (   0.0000000   0.2700000   0.0000000), wk =   0.0144231
        k(   79) = (   0.0000000   0.2800000   0.0000000), wk =   0.0145652
        k(   80) = (   0.0000000   0.2900000   0.0000000), wk =   0.0147072
        k(   81) = (   0.0000000   0.3000000   0.0000000), wk =   0.0148493
        k(   82) = (   0.0000000   0.3100000   0.0000000), wk =   0.0149913
        k(   83) = (   0.0000000   0.3200000   0.0000000), wk =   0.0151334
        k(   84) = (   0.0000000   0.3300000   0.0000000), wk =   0.0152754
        k(   85) = (   0.0000000   0.3400000   0.0000000), wk =   0.0154175
        k(   86) = (   0.0000000   0.3500000   0.0000000), wk =   0.0155595
        k(   87) = (   0.0000000   0.3600000   0.0000000), wk =   0.0157016
        k(   88) = (   0.0000000   0.3700000   0.0000000), wk =   0.0158436
        k(   89) = (   0.0000000   0.3800000   0.0000000), wk =   0.0159857
        k(   90) = (   0.0000000   0.3900000   0.0000000), wk =   0.0161277
        k(   91) = (   0.0000000   0.4000000   0.0000000), wk =   0.0162698
        k(   92) = (   0.0000000   0.4100000   0.0000000), wk =   0.0164118
        k(   93) = (   0.0000000   0.4200000   0.0000000), wk =   0.0165539
        k(   94) = (   0.0000000   0.4300000   0.0000000), wk =   0.0166959
        k(   95) = (   0.0000000   0.4400000   0.0000000), wk =   0.0168380
        k(   96) = (   0.0000000   0.4500000   0.0000000), wk =   0.0169800
        k(   97) = (   0.0000000   0.4600000   0.0000000), wk =   0.0171221
        k(   98) = (   0.0000000   0.4700000   0.0000000), wk =   0.0172641
        k(   99) = (   0.0000000   0.4800000   0.0000000), wk =   0.0174062
        k(  100) = (   0.0000000   0.4900000   0.0000000), wk =   0.0175482
        k(  101) = (   0.0000000   0.5000000   0.0000000), wk =   0.0176903
        k(  102) = (  -0.0066667   0.5033333   0.0000000), wk =   0.0177962
        k(  103) = (  -0.0133333   0.5066667   0.0000000), wk =   0.0179020
        k(  104) = (  -0.0200000   0.5100000   0.0000000), wk =   0.0180079
        k(  105) = (  -0.0266667   0.5133333   0.0000000), wk =   0.0181138
        k(  106) = (  -0.0333333   0.5166667   0.0000000), wk =   0.0182197
        k(  107) = (  -0.0400000   0.5200000   0.0000000), wk =   0.0183256
        k(  108) = (  -0.0466667   0.5233333   0.0000000), wk =   0.0184314
        k(  109) = (  -0.0533333   0.5266667   0.0000000), wk =   0.0185373
        k(  110) = (  -0.0600000   0.5300000   0.0000000), wk =   0.0186432
        k(  111) = (  -0.0666667   0.5333333   0.0000000), wk =   0.0187491
        k(  112) = (  -0.0733333   0.5366667   0.0000000), wk =   0.0188549
        k(  113) = (  -0.0800000   0.5400000   0.0000000), wk =   0.0189608
        k(  114) = (  -0.0866667   0.5433333   0.0000000), wk =   0.0190667
        k(  115) = (  -0.0933333   0.5466667   0.0000000), wk =   0.0191726
        k(  116) = (  -0.1000000   0.5500000   0.0000000), wk =   0.0192785
        k(  117) = (  -0.1066667   0.5533333   0.0000000), wk =   0.0193843
        k(  118) = (  -0.1133333   0.5566667   0.0000000), wk =   0.0194902
        k(  119) = (  -0.1200000   0.5600000   0.0000000), wk =   0.0195961
        k(  120) = (  -0.1266667   0.5633333   0.0000000), wk =   0.0197020
        k(  121) = (  -0.1333333   0.5666667   0.0000000), wk =   0.0198078
        k(  122) = (  -0.1400000   0.5700000   0.0000000), wk =   0.0199137
        k(  123) = (  -0.1466667   0.5733333   0.0000000), wk =   0.0200196
        k(  124) = (  -0.1533333   0.5766667   0.0000000), wk =   0.0201255
        k(  125) = (  -0.1600000   0.5800000   0.0000000), wk =   0.0202314
        k(  126) = (  -0.1666667   0.5833333   0.0000000), wk =   0.0203372
        k(  127) = (  -0.1733333   0.5866667   0.0000000), wk =   0.0204431
        k(  128) = (  -0.1800000   0.5900000   0.0000000), wk =   0.0205490
        k(  129) = (  -0.1866667   0.5933333   0.0000000), wk =   0.0206549
        k(  130) = (  -0.1933333   0.5966667   0.0000000), wk =   0.0207607
        k(  131) = (  -0.2000000   0.6000000   0.0000000), wk =   0.0208666
        k(  132) = (  -0.2066667   0.6033333   0.0000000), wk =   0.0209725
        k(  133) = (  -0.2133333   0.6066667   0.0000000), wk =   0.0210784
        k(  134) = (  -0.2200000   0.6100000   0.0000000), wk =   0.0211843
        k(  135) = (  -0.2266667   0.6133333   0.0000000), wk =   0.0212901
        k(  136) = (  -0.2333333   0.6166667   0.0000000), wk =   0.0213960
        k(  137) = (  -0.2400000   0.6200000   0.0000000), wk =   0.0215019
        k(  138) = (  -0.2466667   0.6233333   0.0000000), wk =   0.0216078
        k(  139) = (  -0.2533333   0.6266667   0.0000000), wk =   0.0217136
        k(  140) = (  -0.2600000   0.6300000   0.0000000), wk =   0.0218195
        k(  141) = (  -0.2666667   0.6333333   0.0000000), wk =   0.0219254
        k(  142) = (  -0.2733333   0.6366667   0.0000000), wk =   0.0220313
        k(  143) = (  -0.2800000   0.6400000   0.0000000), wk =   0.0221372
        k(  144) = (  -0.2866667   0.6433333   0.0000000), wk =   0.0222430
        k(  145) = (  -0.2933333   0.6466667   0.0000000), wk =   0.0223489
        k(  146) = (  -0.3000000   0.6500000   0.0000000), wk =   0.0224548
        k(  147) = (  -0.3066667   0.6533333   0.0000000), wk =   0.0225607
        k(  148) = (  -0.3133333   0.6566667   0.0000000), wk =   0.0226665
        k(  149) = (  -0.3200000   0.6600000   0.0000000), wk =   0.0227724
        k(  150) = (  -0.3266667   0.6633333   0.0000000), wk =   0.0228783
        k(  151) = (  -0.3333333   0.6666667   0.0000000), wk =   0.0229842

     Dense  grid:    96043 G-vectors     FFT dimensions: (  30,  30, 243)

     Smooth grid:    24369 G-vectors     FFT dimensions: (  20,  20, 160)

     Largest allocated arrays     est. size (Mb)     dimensions
        Kohn-Sham Wavefunctions         1.50 Mb     (    3069,   32)
        NL pseudopotentials             1.50 Mb     (    3069,   32)
        Each V/rho on FFT grid          3.34 Mb     (  218700)
        Each G-vector array             0.73 Mb     (   96043)
        G-vector shells                 0.04 Mb     (    4763)
     Largest temporary arrays     est. size (Mb)     dimensions
        Auxiliary wavefunctions         5.99 Mb     (    3069,  128)
        Each subspace H/S matrix        0.25 Mb     (     128,  128)
        Each <psi_i|beta_j> matrix      0.02 Mb     (      32,   32)

     The potential is recalculated from file :
     ../tmp/graphene.save/charge-density.dat


     negative rho (up, down):  1.384E-06 0.000E+00
     Starting wfc are   16 randomized atomic wfcs +   16 random wfc

     Band Structure Calculation
     Davidson diagonalization with overlap

     Computing kpt #:     1
     total cpu time spent up to now is        2.8 secs

     Computing kpt #:     2
     total cpu time spent up to now is        4.7 secs

     Computing kpt #:     3
     total cpu time spent up to now is        6.8 secs

     Computing kpt #:     4
     total cpu time spent up to now is        8.8 secs

     Computing kpt #:     5
     total cpu time spent up to now is       10.7 secs

     Computing kpt #:     6
     total cpu time spent up to now is       12.5 secs

     Computing kpt #:     7
     total cpu time spent up to now is       14.4 secs

     Computing kpt #:     8
     total cpu time spent up to now is       16.5 secs

     Computing kpt #:     9
     total cpu time spent up to now is       18.6 secs

     Computing kpt #:    10
     total cpu time spent up to now is       20.5 secs

     Computing kpt #:    11
     total cpu time spent up to now is       22.6 secs

     Computing kpt #:    12
     total cpu time spent up to now is       24.4 secs

     Computing kpt #:    13
     total cpu time spent up to now is       26.4 secs

     Computing kpt #:    14
     total cpu time spent up to now is       28.2 secs

     Computing kpt #:    15
     total cpu time spent up to now is       30.1 secs

     Computing kpt #:    16
     total cpu time spent up to now is       31.9 secs

     Computing kpt #:    17
     total cpu time spent up to now is       34.1 secs

     Computing kpt #:    18
     total cpu time spent up to now is       36.4 secs

     Computing kpt #:    19
     total cpu time spent up to now is       38.1 secs

     Computing kpt #:    20
     total cpu time spent up to now is       39.9 secs

     Computing kpt #:    21
     total cpu time spent up to now is       41.6 secs

     Computing kpt #:    22
     total cpu time spent up to now is       43.3 secs

     Computing kpt #:    23
     total cpu time spent up to now is       45.0 secs

     Computing kpt #:    24
     total cpu time spent up to now is       46.7 secs

     Computing kpt #:    25
     total cpu time spent up to now is       48.4 secs

     Computing kpt #:    26
     total cpu time spent up to now is       50.3 secs

     Computing kpt #:    27
     total cpu time spent up to now is       52.2 secs

     Computing kpt #:    28
     total cpu time spent up to now is       53.5 secs

     Computing kpt #:    29
     total cpu time spent up to now is       54.9 secs

     Computing kpt #:    30
     total cpu time spent up to now is       56.5 secs

     Computing kpt #:    31
     total cpu time spent up to now is       57.9 secs

     Computing kpt #:    32
     total cpu time spent up to now is       59.3 secs

     Computing kpt #:    33
     total cpu time spent up to now is       60.6 secs

     Computing kpt #:    34
     total cpu time spent up to now is       61.7 secs

     Computing kpt #:    35
     total cpu time spent up to now is       62.8 secs

     Computing kpt #:    36
     total cpu time spent up to now is       63.9 secs

     Computing kpt #:    37
     total cpu time spent up to now is       65.0 secs

     Computing kpt #:    38
     total cpu time spent up to now is       66.1 secs

     Computing kpt #:    39
     total cpu time spent up to now is       67.2 secs

     Computing kpt #:    40
     total cpu time spent up to now is       68.2 secs

     Computing kpt #:    41
     total cpu time spent up to now is       69.3 secs

     Computing kpt #:    42
     total cpu time spent up to now is       70.5 secs

     Computing kpt #:    43
     total cpu time spent up to now is       71.6 secs

     Computing kpt #:    44
     total cpu time spent up to now is       72.8 secs

     Computing kpt #:    45
     total cpu time spent up to now is       74.0 secs

     Computing kpt #:    46
     total cpu time spent up to now is       75.0 secs

     Computing kpt #:    47
     total cpu time spent up to now is       76.0 secs

     Computing kpt #:    48
     total cpu time spent up to now is       76.7 secs

     Computing kpt #:    49
     total cpu time spent up to now is       77.5 secs

     Computing kpt #:    50
     total cpu time spent up to now is       78.2 secs

     Computing kpt #:    51
     total cpu time spent up to now is       78.9 secs

     Computing kpt #:    52
     total cpu time spent up to now is       79.6 secs

     Computing kpt #:    53
     total cpu time spent up to now is       80.3 secs

     Computing kpt #:    54
     total cpu time spent up to now is       81.1 secs

     Computing kpt #:    55
     total cpu time spent up to now is       81.8 secs

     Computing kpt #:    56
     total cpu time spent up to now is       82.6 secs

     Computing kpt #:    57
     total cpu time spent up to now is       83.3 secs

     Computing kpt #:    58
     total cpu time spent up to now is       84.1 secs

     Computing kpt #:    59
     total cpu time spent up to now is       84.9 secs

     Computing kpt #:    60
     total cpu time spent up to now is       85.7 secs

     Computing kpt #:    61
     total cpu time spent up to now is       86.5 secs

     Computing kpt #:    62
     total cpu time spent up to now is       87.3 secs

     Computing kpt #:    63
     total cpu time spent up to now is       88.1 secs

     Computing kpt #:    64
     total cpu time spent up to now is       88.9 secs

     Computing kpt #:    65
     total cpu time spent up to now is       89.7 secs

     Computing kpt #:    66
     total cpu time spent up to now is       90.5 secs

     Computing kpt #:    67
     total cpu time spent up to now is       91.3 secs

     Computing kpt #:    68
     total cpu time spent up to now is       92.2 secs

     Computing kpt #:    69
     total cpu time spent up to now is       93.0 secs

     Computing kpt #:    70
     total cpu time spent up to now is       93.8 secs

     Computing kpt #:    71
     total cpu time spent up to now is       94.7 secs

     Computing kpt #:    72
     total cpu time spent up to now is       95.5 secs

     Computing kpt #:    73
     total cpu time spent up to now is       96.4 secs

     Computing kpt #:    74
     total cpu time spent up to now is       97.3 secs

     Computing kpt #:    75
     total cpu time spent up to now is       98.1 secs

     Computing kpt #:    76
     total cpu time spent up to now is       99.0 secs

     Computing kpt #:    77
     total cpu time spent up to now is       99.9 secs

     Computing kpt #:    78
     total cpu time spent up to now is      100.8 secs

     Computing kpt #:    79
     total cpu time spent up to now is      102.3 secs

     Computing kpt #:    80
     total cpu time spent up to now is      104.0 secs

     Computing kpt #:    81
     total cpu time spent up to now is      105.8 secs

     Computing kpt #:    82
     total cpu time spent up to now is      107.5 secs

     Computing kpt #:    83
     total cpu time spent up to now is      109.3 secs

     Computing kpt #:    84
     total cpu time spent up to now is      111.1 secs

     Computing kpt #:    85
     total cpu time spent up to now is      112.4 secs

     Computing kpt #:    86
     total cpu time spent up to now is      114.2 secs

     Computing kpt #:    87
     total cpu time spent up to now is      115.9 secs

     Computing kpt #:    88
     total cpu time spent up to now is      117.7 secs

     Computing kpt #:    89
     total cpu time spent up to now is      119.6 secs

     Computing kpt #:    90
     total cpu time spent up to now is      121.5 secs

     Computing kpt #:    91
     total cpu time spent up to now is      123.3 secs

     Computing kpt #:    92
     total cpu time spent up to now is      125.5 secs

     Computing kpt #:    93
     total cpu time spent up to now is      127.3 secs

     Computing kpt #:    94
     total cpu time spent up to now is      129.2 secs

     Computing kpt #:    95
     total cpu time spent up to now is      131.1 secs

     Computing kpt #:    96
     total cpu time spent up to now is      133.1 secs

     Computing kpt #:    97
     total cpu time spent up to now is      135.1 secs

     Computing kpt #:    98
     total cpu time spent up to now is      137.0 secs

     Computing kpt #:    99
     total cpu time spent up to now is      138.9 secs

     Computing kpt #:   100
     total cpu time spent up to now is      141.2 secs

     Computing kpt #:   101
     total cpu time spent up to now is      143.9 secs

     Computing kpt #:   102
     total cpu time spent up to now is      146.3 secs

     Computing kpt #:   103
     total cpu time spent up to now is      148.9 secs

     Computing kpt #:   104
     total cpu time spent up to now is      151.4 secs

     Computing kpt #:   105
     total cpu time spent up to now is      154.2 secs

     Computing kpt #:   106
     total cpu time spent up to now is      157.8 secs

     Computing kpt #:   107
     total cpu time spent up to now is      160.6 secs

     Computing kpt #:   108
     total cpu time spent up to now is      163.3 secs

     Computing kpt #:   109
     total cpu time spent up to now is      166.3 secs

     Computing kpt #:   110
     total cpu time spent up to now is      169.1 secs

     Computing kpt #:   111
     total cpu time spent up to now is      172.1 secs

     Computing kpt #:   112
     total cpu time spent up to now is      174.9 secs

     Computing kpt #:   113
     total cpu time spent up to now is      177.8 secs

     Computing kpt #:   114
     total cpu time spent up to now is      180.5 secs

     Computing kpt #:   115
     total cpu time spent up to now is      183.0 secs

     Computing kpt #:   116
     total cpu time spent up to now is      185.7 secs

     Computing kpt #:   117
     total cpu time spent up to now is      188.6 secs

     Computing kpt #:   118
     total cpu time spent up to now is      191.6 secs

     Computing kpt #:   119
     total cpu time spent up to now is      194.2 secs

     Computing kpt #:   120
     total cpu time spent up to now is      197.2 secs

     Computing kpt #:   121
     total cpu time spent up to now is      200.1 secs

     Computing kpt #:   122
     total cpu time spent up to now is      202.7 secs

     Computing kpt #:   123
     total cpu time spent up to now is      205.4 secs

     Computing kpt #:   124
     total cpu time spent up to now is      208.0 secs

     Computing kpt #:   125
     total cpu time spent up to now is      210.9 secs

     Computing kpt #:   126
     total cpu time spent up to now is      213.7 secs

     Computing kpt #:   127
     total cpu time spent up to now is      216.5 secs

     Computing kpt #:   128
     total cpu time spent up to now is      220.3 secs

     Computing kpt #:   129
     total cpu time spent up to now is      223.1 secs

     Computing kpt #:   130
     total cpu time spent up to now is      225.8 secs

     Computing kpt #:   131
     total cpu time spent up to now is      228.3 secs

     Computing kpt #:   132
     total cpu time spent up to now is      230.8 secs

     Computing kpt #:   133
     total cpu time spent up to now is      233.3 secs

     Computing kpt #:   134
     total cpu time spent up to now is      235.8 secs

     Computing kpt #:   135
     total cpu time spent up to now is      238.3 secs

     Computing kpt #:   136
     total cpu time spent up to now is      240.7 secs

     Computing kpt #:   137
     total cpu time spent up to now is      243.2 secs

     Computing kpt #:   138
     total cpu time spent up to now is      246.1 secs

     Computing kpt #:   139
     total cpu time spent up to now is      248.6 secs

     Computing kpt #:   140
     total cpu time spent up to now is      251.1 secs

     Computing kpt #:   141
     total cpu time spent up to now is      253.3 secs

     Computing kpt #:   142
     total cpu time spent up to now is      255.3 secs

     Computing kpt #:   143
     total cpu time spent up to now is      257.3 secs

     Computing kpt #:   144
     total cpu time spent up to now is      259.3 secs

     Computing kpt #:   145
     total cpu time spent up to now is      261.3 secs

     Computing kpt #:   146
     total cpu time spent up to now is      263.5 secs

     Computing kpt #:   147
     total cpu time spent up to now is      265.8 secs

     Computing kpt #:   148
     total cpu time spent up to now is      267.8 secs

     Computing kpt #:   149
     total cpu time spent up to now is      269.8 secs

     Computing kpt #:   150
     total cpu time spent up to now is      271.8 secs

     Computing kpt #:   151
     total cpu time spent up to now is      273.8 secs

     ethr =  6.25E-09,  avg # of iterations = 18.6

     total cpu time spent up to now is      273.8 secs

     End of band structure calculation

          k =-0.3333 0.5774 0.0000 (  3027 PWs)   bands (ev):

   -13.0972 -13.0967 -13.0344 -13.0338 -11.0611 -11.0166  -0.7437  -0.7430
    -0.2396  -0.2388   9.3101  10.9910  12.0390  12.0396  12.8078  13.1099
    13.1106  14.5298  14.5300  14.8209  14.8214  14.8479  14.9686  15.3627
    15.3628  15.8289  16.1962  16.3665  16.3667  17.2251  17.2257  17.3433

          k =-0.3267 0.5658 0.0000 (  3015 PWs)   bands (ev):

   -13.2469 -13.1831 -12.9609 -12.8990 -11.0408 -10.9963  -0.9346  -0.5536
    -0.4264  -0.0528   9.3192  10.9926  11.9583  12.0828  12.7897  13.0471
    13.1237  14.2602  14.5637  14.7149  14.8581  14.9236  15.1508  15.2474
    15.5527  15.6994  16.1899  16.3205  16.5516  17.2305  17.2867  17.3548

          k =-0.3200 0.5543 0.0000 (  3017 PWs)   bands (ev):

   -13.4247 -13.3598 -12.8196 -12.7586 -10.9854 -10.9408  -1.1352  -0.6215
    -0.3568   0.1404   9.3455  10.9937  11.8117  12.1161  12.7443  12.9222
    13.1119  13.9222  14.2803  14.7418  14.9062  15.0536  15.3079  15.3655
    15.4208  15.7522  16.1804  16.4374  16.7521  17.2899  17.3618  17.3657

          k =-0.3133 0.5427 0.0000 (  3009 PWs)   bands (ev):

   -13.6222 -13.5563 -12.6732 -12.6131 -10.9022 -10.8579  -1.3437  -0.8234
    -0.1534   0.3401   9.3875  10.9868  11.6072  12.1386  12.6787  12.7577
    13.0781  13.5653  14.0107  14.5416  15.0713  15.1042  15.2098  15.4419
    15.6210  15.9616  16.1915  16.5517  16.9661  17.0376  17.4000  17.4625

          k =-0.3067 0.5312 0.0000 (  2999 PWs)   bands (ev):

   -13.8331 -13.7660 -12.5216 -12.4625 -10.7975 -10.7537  -1.5593  -1.0313
     0.0566   0.5462   9.4432  10.9601  11.3589  12.1502  12.5798  12.5905
    13.0267  13.2074  13.7483  14.3047  14.7468  15.3090  15.3892  15.5783
    15.8582  16.1808  16.2132  16.5663  16.8248  17.1923  17.4797  17.5766

          k =-0.3000 0.5196 0.0000 (  3005 PWs)   bands (ev):

   -14.0525 -13.9842 -12.3650 -12.3069 -10.6763 -10.6329  -1.7806  -1.2442
     0.2732   0.7586   9.5103  10.8984  11.0813  12.1512  12.4147  12.4671
    12.8662  12.9617  13.4856  14.0467  14.4395  15.5208  15.5887  15.6694
    16.0978  16.1994  16.4097  16.4521  16.7557  17.4297  17.6400  17.7072

          k =-0.2933 0.5081 0.0000 (  3015 PWs)   bands (ev):

   -14.2768 -14.2074 -12.2034 -12.1463 -10.5418 -10.4989  -2.0066  -1.4612
     0.4961   0.9772   9.5860  10.7853  10.7874  12.1418  12.2735  12.2824
    12.5795  12.8866  13.2179  13.7779  14.1583  15.6244  15.7397  15.8055
    16.2158  16.2193  16.3733  16.6482  16.8494  17.6772  17.8505  17.8532

          k =-0.2867 0.4965 0.0000 (  3009 PWs)   bands (ev):

   -14.5037 -14.4330 -12.0367 -11.9808 -10.3963 -10.3541  -2.2363  -1.6814
     0.7252   1.2018   9.6667  10.4787  10.6217  11.9871  12.1230  12.1865
    12.3723  12.8041  12.9450  13.5060  13.9105  15.4366  15.9657  15.9817
    16.0372  16.3393  16.6165  16.8957  17.0304  17.9344  18.0133  18.0728

          k =-0.2800 0.4850 0.0000 (  3015 PWs)   bands (ev):

   -14.7312 -14.6594 -11.8652 -11.8103 -10.2417 -10.2002  -2.4687  -1.9041
     0.9605   1.4324   9.7480  10.1671  10.4085  11.6589  12.0953  12.1089
    12.1973  12.6727  12.7164  13.2370  13.7043  15.1958  15.7128  16.1983
    16.2818  16.5201  16.8803  17.1518  17.2548  18.0068  18.1863  18.2004

          k =-0.2733 0.4734 0.0000 (  3017 PWs)   bands (ev):

   -14.9581 -14.8850 -11.6887 -11.6349 -10.0794 -10.0386  -2.7027  -2.1284
     1.2018   1.6687   9.8194   9.8588  10.1613  11.3239  12.0109  12.0236
    12.0597  12.4184  12.6249  12.9753  13.5479  14.9457  15.4399  16.4367
    16.5377  16.7282  17.1537  17.4156  17.5057  17.8181  18.3523  18.3708

          k =-0.2667 0.4619 0.0000 (  3019 PWs)   bands (ev):

   -15.1833 -15.1090 -11.5075 -11.4548  -9.9102  -9.8702  -2.9376  -2.3535
     1.4488   1.9105   9.5403   9.8885   9.8929  10.9944  11.8436  11.8451
    12.0172  12.2102  12.5308  12.7238  13.4467  14.7027  15.1759  16.6799
    16.8036  16.9490  17.4354  17.5943  17.6859  17.7763  18.2940  18.5658

          k =-0.2600 0.4503 0.0000 (  3029 PWs)   bands (ev):

   -15.4061 -15.3305 -11.3214 -11.2699  -9.7350  -9.6958  -3.1726  -2.5787
     1.7014   2.1577   9.2308   9.6128   9.9253  10.6787  11.6017  11.6635
    11.9685  12.0425  12.4351  12.4845  13.3946  14.4756  14.9344  16.9258
    17.0778  17.1307  17.4124  17.7242  17.9609  18.0615  18.1430  18.7705

          k =-0.2533 0.4388 0.0000 (  3037 PWs)   bands (ev):

   -15.6258 -15.5490 -11.1307 -11.0803  -9.5545  -9.5162  -3.4068  -2.8033
     1.9595   2.4101   8.9251   9.3271   9.9119  10.3934  11.3245  11.4831
    11.8785  11.9144  12.2583  12.3382  13.3673  14.2708  14.7349  17.0262
    17.1713  17.3589  17.5299  17.9258  18.0400  18.2381  18.3599  18.9849

          k =-0.2467 0.4272 0.0000 (  3029 PWs)   bands (ev):

   -15.8421 -15.7640 -10.9354 -10.8862  -9.3691  -9.3317  -3.6397  -3.0268
     2.2228   2.6675   8.6243   9.0400   9.7986  10.1795  11.0363  11.3088
    11.7035  11.8557  12.0454  12.2408  13.3259  14.0939  14.6049  16.8018
    17.4118  17.6444  17.7132  17.7865  18.3340  18.5139  18.6697  19.2103

          k =-0.2400 0.4157 0.0000 (  3037 PWs)   bands (ev):

   -16.0545 -15.9752 -10.7356 -10.6875  -9.1795  -9.1430  -3.8706  -3.2485
     2.4910   2.9296   8.3291   8.7542   9.5722  10.0433  10.7465  11.1438
    11.5186  11.7929  11.8446  12.1430  13.2337  13.9494  14.5693  16.5761
    17.4780  17.6394  17.9307  18.0683  18.6448  18.7839  18.9895  19.4496

          k =-0.2333 0.4041 0.0000 (  3037 PWs)   bands (ev):

   -16.2626 -16.1821 -10.5313 -10.4843  -8.9860  -8.9504  -4.0990  -3.4680
     2.7640   3.1962   8.0401   8.4716   9.2993   9.9168  10.4590  10.9878
    11.3278  11.6536  11.7266  12.0452  13.0814  13.8395  14.6282  16.3649
    17.2377  17.8421  18.2115  18.3641  18.9609  19.0443  19.3169  19.7072

          k =-0.2267 0.3926 0.0000 (  3045 PWs)   bands (ev):

   -16.4663 -16.3846 -10.3227 -10.2769  -8.7891  -8.7545  -4.3243  -3.6847
     3.0415   3.4669   7.7576   8.1935   9.0172   9.7683  10.1760  10.8365
    11.1344  11.4693  11.6573  11.9475  12.8852  13.7624  14.7582  16.1764
    16.9983  18.0030  18.4735  18.6709  19.2785  19.2957  19.6417  19.9870

          k =-0.2200 0.3811 0.0000 (  3045 PWs)   bands (ev):

   -16.6653 -16.5825 -10.1099 -10.0653  -8.5892  -8.5555  -4.5461  -3.8983
     3.3232   3.7417   7.4821   7.9207   8.7367   9.5962   9.8987  10.6854
    10.9410  11.2876  11.5853  11.8498  12.6646  13.7109  14.9330  16.0191
    16.7655  18.1017  18.6886  18.9869  19.5459  19.5903  19.7991  20.0780

          k =-0.2133 0.3695 0.0000 (  3045 PWs)   bands (ev):

   -16.8594 -16.7754  -9.8931  -9.8496  -8.3866  -8.3540  -4.7640  -4.1082
     3.6087   4.0199   7.2137   7.6540   8.4615   9.4070   9.6277  10.5318
    10.7494  11.1054  11.5110  11.7523  12.4326  13.6728  15.1307  15.9024
    16.5474  18.1219  18.8021  19.3097  19.6433  19.8066  19.8759  20.1984

          k =-0.2067 0.3580 0.0000 (  3041 PWs)   bands (ev):

   -17.0485 -16.9634  -9.6722  -9.6300  -8.1818  -8.1502  -4.9776  -4.3143
     3.8978   4.3015   6.9527   7.3938   8.1929   9.2071   9.3636  10.3756
    10.5607  10.9209  11.4345  11.6548  12.1968  13.6332  15.3249  15.8355
    16.3619  18.0588  18.7582  19.4411  19.6516  20.0751  20.0868  20.2798

          k =-0.2000 0.3464 0.0000 (  3047 PWs)   bands (ev):

   -17.2324 -17.1462  -9.4477  -9.4066  -7.9752  -7.9446  -5.1866  -4.5160
     4.1900   4.5858   6.6992   7.1406   7.9318   9.0017   9.1069  10.2177
    10.3760  10.7339  11.3559  11.5573  11.9615  13.5785  15.4630  15.8251
    16.2566  17.9200  18.5703  19.2520  19.9859  20.1072  20.3894  20.4848

          k =-0.1933 0.3349 0.0000 (  3051 PWs)   bands (ev):

   -17.4110 -17.3237  -9.2196  -9.1797  -7.7673  -7.7376  -5.3907  -4.7132
     4.4850   4.8726   6.4534   6.8946   7.6785   8.7945   8.8577  10.0597
    10.1960  10.5451  11.2752  11.4594  11.7291  13.5005  15.4646  15.8715
    16.3086  17.7198  18.2961  19.0667  20.0175  20.3285  20.7128  20.7673

          k =-0.1867 0.3233 0.0000 (  3055 PWs)   bands (ev):

   -17.5842 -17.4958  -8.9880  -8.9495  -7.5583  -7.5297  -5.5896  -4.9055
     4.7823   5.1615   6.2155   6.6560   7.4334   8.5882   8.6162   9.9030
    10.0211  10.3558  11.1924  11.3610  11.5014  13.3979  15.3421  15.9681
    16.5026  17.4730  17.9766  18.8942  19.8803  20.6746  21.0542  21.0920

          k =-0.1800 0.3118 0.0000 (  3057 PWs)   bands (ev):

   -17.7518 -17.6625  -8.7534  -8.7160  -7.3488  -7.3212  -5.7831  -5.0926
     5.0814   5.4518   5.9854   6.4251   7.1964   8.3827   8.3845   9.7489
     9.8518  10.1674  11.1074  11.2618  11.2793  13.2743  15.1686  16.1019
    16.7634  17.1925  17.6330  18.7416  19.7254  21.0216  21.4106  21.4411

          k =-0.1733 0.3002 0.0000 (  3035 PWs)   bands (ev):

   -17.9139 -17.8236  -8.5158  -8.4795  -7.1392  -7.1125  -5.9709  -5.2745
     5.3819   5.7432   5.7634   6.2020   6.9678   8.1572   8.1847   9.5981
     9.6885   9.9812  11.0200  11.0635  11.1614  13.1354  14.9796  16.2563
    16.8883  17.0529  17.2765  18.6176  19.5650  21.3664  21.7791  21.8059

          k =-0.1667 0.2887 0.0000 (  3039 PWs)   bands (ev):

   -18.0703 -17.9791  -8.2756  -8.2405  -6.9301  -6.9044  -6.1528  -5.4508
     5.5494   5.6831   5.9868   6.0350   6.7477   7.9399   7.9898   9.4515
     9.5314   9.7982  10.8545  10.9298  11.0593  12.9865  14.7877  16.4111
    16.5682  16.9135  17.3555  18.5351  19.4058  21.7040  22.1566  22.1812

          k =-0.1600 0.2771 0.0000 (  3043 PWs)   bands (ev):

   -18.2210 -18.1288  -8.0332  -7.9993  -6.7219  -6.6971  -6.3286  -5.6213
     5.3435   5.7797   5.9844   6.3266   6.5360   7.7307   7.8005   9.3095
     9.3808   9.6195  10.6527  10.8364  10.9549  12.8322  14.5979  16.2385
    16.5434  16.5488  17.6609  18.5108  19.2537  22.0272  22.4908  22.5383

          k =-0.1533 0.2656 0.0000 (  3049 PWs)   bands (ev):

   -18.3659 -18.2728  -7.7888  -7.7561  -6.5188  -6.4945  -6.4912  -5.7859
     5.1458   5.5806   6.2852   6.3328   6.6175   7.5299   7.6174   9.1726
     9.2369   9.4459  10.4582  10.7392  10.8476  12.6759  14.4126  15.9040
    16.1858  16.6317  17.9571  18.5613  19.1181  22.3225  22.5913  22.9153

          k =-0.1467 0.2540 0.0000 (  3049 PWs)   bands (ev):

   -18.5049 -18.4109  -7.5429  -7.5114  -6.6620  -6.3096  -6.2873  -5.9443
     4.9564   5.3897   6.1382   6.5847   6.9068   7.3374   7.4408   9.0408
     9.0998   9.2782  10.2713  10.6377  10.7367  12.5200  14.2329  15.5689
    15.8275  16.6643  18.2175  18.6941  19.0226  22.5617  22.6445  23.2211

          k =-0.1400 0.2425 0.0000 (  3049 PWs)   bands (ev):

   -18.6380 -18.5432  -7.2960  -7.2656  -6.8187  -6.1074  -6.1006  -6.0819
     4.7752   5.2071   5.9521   6.8822   7.1533   7.1939   7.2711   8.9143
     8.9698   9.1169  10.0922  10.5311  10.6214  12.3664  14.0597  15.2370
    15.4767  16.6452  18.3759  18.9022  19.0296  22.6716  22.6884  23.2316

          k =-0.1333 0.2309 0.0000 (  3049 PWs)   bands (ev):

   -18.7652 -18.6696  -7.0484  -7.0193  -6.9688  -6.2429  -5.9081  -5.8872
     4.6023   5.0328   5.7747   6.9776   7.1085   7.1768   7.4779   8.7929
     8.8468   8.9630   9.9209  10.4186  10.5009  12.2164  13.8934  14.9117
    15.1357  16.5877  18.3790  19.1687  19.1881  22.6818  22.6904  23.3303

          k =-0.1267 0.2194 0.0000 (  3061 PWs)   bands (ev):

   -18.8864 -18.7900  -7.1123  -6.8009  -6.7729  -6.3823  -5.7126  -5.6927
     4.4377   4.8667   5.6058   6.8104   6.9532   7.4677   7.7579   8.6761
     8.7310   8.8175   9.7575  10.2993  10.3741  12.0710  13.7343  14.5959
    14.8071  16.5059  18.2945  19.4245  19.4765  22.6111  22.7147  23.4431

          k =-0.1200 0.2078 0.0000 (  3053 PWs)   bands (ev):

   -19.0015 -18.9044  -7.2488  -6.5539  -6.5272  -6.5151  -5.5214  -5.5024
     4.2814   4.7091   5.4456   6.6517   6.8054   7.7538   8.0331   8.5627
     8.6224   8.6818   9.6021  10.1725  10.2404  11.9310  13.5827  14.2925
    14.4933  16.4103  18.1829  19.6715  19.8104  22.5261  22.7555  23.5193

          k =-0.1133 0.1963 0.0000 (  3049 PWs)   bands (ev):

   -19.1106 -19.0128  -7.3785  -6.6412  -6.3084  -6.2828  -5.3353  -5.3172
     4.1336   4.5598   5.2941   6.5014   6.6652   8.0342   8.3026   8.4511
     8.5211   8.5580   9.4547  10.0373  10.0990  11.7969  13.4387  14.0041
    14.1962  16.3080  18.0646  19.9010  20.1568  22.4482  22.8210  23.5455

          k =-0.1067 0.1848 0.0000 (  3051 PWs)   bands (ev):

   -19.2136 -19.1152  -7.5011  -6.7606  -6.0650  -6.0407  -5.1549  -5.1375
     3.9941   4.4190   5.1511   6.3597   6.5328   8.3077   8.3399   8.4271
     8.4475   8.5651   9.3154   9.8934   9.9494  11.6693  13.3024  13.7331
    13.9180  16.2037  17.9471  20.0990  20.5003  22.3922  22.9153  23.5245

          k =-0.1000 0.1732 0.0000 (  3063 PWs)   bands (ev):

   -19.3105 -19.2115  -7.6167  -6.8731  -5.8248  -5.8016  -4.9809  -4.9643
     3.8631   4.2867   5.0168   6.2265   6.4081   8.2297   8.3403   8.3499
     8.5733   8.8197   9.1842   9.7406   9.7916  11.5483  13.1740  13.4813
    13.6600  16.1002  17.8331  20.2586  20.8180  22.3773  23.0346  23.4671

          k =-0.0933 0.1617 0.0000 (  3065 PWs)   bands (ev):

   -19.4012 -19.3016  -7.7250  -6.9787  -5.5886  -5.5667  -4.8138  -4.7980
     3.7404   4.1628   4.8912   6.1019   6.2914   8.1225   8.2606   8.2635
     8.8296   9.0611   9.0651   9.5793   9.6260  11.4344  13.0535  13.2501
    13.4236  15.9997  17.7242  20.3783  21.0761  22.4296  23.1608  23.3894

          k =-0.0867 0.1501 0.0000 (  3057 PWs)   bands (ev):

   -19.4858 -19.3856  -7.8261  -7.0773  -5.3577  -5.3369  -4.6546  -4.6395
     3.6262   4.0473   4.7742   5.9859   6.1825   8.0203   8.1863   8.1881
     8.9461   9.0750   9.2989   9.4110   9.4551  11.3277  12.9410  13.0403
    13.2092  15.9035  17.6213  20.4613  21.2414  22.5614  23.2536  23.3199

          k =-0.0800 0.1386 0.0000 (  3049 PWs)   bands (ev):

   -19.5642 -19.4635  -7.9200  -7.1687  -5.1334  -5.1138  -4.5038  -4.4893
     3.5205   3.9404   4.6659   5.8784   6.0817   7.9241   8.1171   8.1225
     8.8394   9.2280   9.2730   9.3176   9.5273  11.2284  12.8365  12.8523
    13.0170  15.8124  17.5249  20.5140  21.3139  22.7056  23.2627  23.3324

          k =-0.0733 0.1270 0.0000 (  3053 PWs)   bands (ev):

   -19.6363 -19.5352  -8.0065  -7.2531  -4.9171  -4.8986  -4.3621  -4.3482
     3.4232   3.8421   4.5663   5.7795   5.9889   7.8347   8.0551   8.0636
     8.7408   9.0544   9.0928   9.5343   9.7382  11.1367  12.6855  12.7402
    12.8464  15.7272  17.4353  20.5431  21.3248  22.7270  23.1845  23.5358

          k =-0.0667 0.1155 0.0000 (  3051 PWs)   bands (ev):

   -19.7023 -19.6007  -8.0856  -7.3303  -4.7103  -4.6929  -4.2302  -4.2168
     3.3343   3.7522   4.4753   5.6892   5.9041   7.7524   7.9999   8.0114
     8.6504   8.8751   8.9116   9.7416   9.9363  11.0526  12.5392  12.6521
    12.6966  15.6484  17.3528  20.5552  21.3035  22.6443  23.0587  23.8852

          k =-0.0600 0.1039 0.0000 (  3059 PWs)   bands (ev):

   -19.7620 -19.6601  -8.1573  -7.4002  -4.5148  -4.4984  -4.1087  -4.0957
     3.2539   3.6709   4.3930   5.6075   5.8274   7.6777   7.9511   7.9655
     8.5682   8.6978   8.7330   9.9338  10.1197  10.9763  12.4122  12.5663
    12.5721  15.5763  17.2777  20.5556  21.2678  22.5274  22.9169  24.2948

          k =-0.0533 0.0924 0.0000 (  3059 PWs)   bands (ev):

   -19.8155 -19.7132  -8.2216  -7.4629  -4.3323  -4.3169  -3.9982  -3.9856
     3.1820   3.5981   4.3194   5.5344   5.7587   7.6106   7.9084   7.9257
     8.4943   8.5263   8.5607  10.1096  10.2873  10.9079  12.3031  12.4544
    12.5005  15.5112  17.2100  20.5483  21.2267  22.4036  22.7749  24.6944

          k =-0.0467 0.0808 0.0000 (  3057 PWs)   bands (ev):

   -19.8627 -19.7601  -8.2783  -7.5183  -4.1647  -4.1503  -3.8992  -3.8870
     3.1186   3.5339   4.2544   5.4698   5.6981   7.5512   7.8715   7.8917
     8.3641   8.3980   8.4287  10.2678  10.4380  10.8473  12.2107  12.3593
    12.4371  15.4534  17.1499  20.5366  21.1853  22.2837  22.6408  24.7679

          k =-0.0400 0.0693 0.0000 (  3065 PWs)   bands (ev):

   -19.9036 -19.8008  -8.3276  -7.5664  -4.0142  -4.0006  -3.8124  -3.8005
     3.0636   3.4782   4.1981   5.4139   5.6456   7.4996   7.8401   7.8632
     8.2148   8.2485   8.3716  10.4072  10.5707  10.7948  12.1335  12.2798
    12.3821  15.4031  17.0976  20.5227  21.1463  22.1730  22.5190  24.8142

          k =-0.0333 0.0577 0.0000 (  3065 PWs)   bands (ev):

   -19.9382 -19.8352  -8.3693  -7.6071  -3.8826  -3.8697  -3.7381  -3.7264
     3.0171   3.4311   4.1505   5.3666   5.6012   7.4559   7.8140   7.8398
     8.0818   8.1154   8.3229  10.5270  10.6847  10.7502  12.0703  12.2146
    12.3355  15.3603  17.0531  20.5085  21.1114  22.0750  22.4125  24.8411

          k =-0.0267 0.0462 0.0000 (  3067 PWs)   bands (ev):

   -19.9666 -19.8633  -8.4034  -7.6404  -3.7718  -3.7595  -3.6767  -3.6653
     2.9790   3.3925   4.1115   5.3279   5.5648   7.4201   7.7929   7.8213
     7.9683   8.0018   8.2828  10.6261  10.7137  10.7791  12.0200  12.1627
    12.2973  15.3251  17.0166  20.4952  21.0818  21.9922  22.3233  24.8556

          k =-0.0200 0.0346 0.0000 (  3067 PWs)   bands (ev):

   -19.9887 -19.8853  -8.4300  -7.6664  -3.6835  -3.6718  -3.6287  -3.6174
     2.9494   3.3626   4.0812   5.2978   5.5366   7.3922   7.7768   7.8074
     7.8769   7.9105   8.2515  10.6853  10.7039  10.8531  11.9819  12.1233
    12.2676  15.2977  16.9881  20.4840  21.0580  21.9263  22.2526  24.8625

          k =-0.0133 0.0231 0.0000 (  3067 PWs)   bands (ev):

   -20.0044 -19.9009  -8.4490  -7.6849  -3.6193  -3.6079  -3.5941  -3.5829
     2.9283   3.3411   4.0596   5.2763   5.5164   7.3723   7.7653   7.7977
     7.8099   7.8436   8.2290  10.6650  10.7599  10.9064  11.9552  12.0956
    12.2463  15.2780  16.9677  20.4755  21.0407  21.8783  22.2015  24.8655

          k =-0.0067 0.0115 0.0000 (  3059 PWs)   bands (ev):

   -20.0139 -19.9103  -8.4604  -7.6960  -3.5804  -3.5733  -3.5692  -3.5621
     2.9156   3.3283   4.0466   5.2634   5.5043   7.3603   7.7584   7.7690
     7.7919   7.8028   8.2154  10.6528  10.7937  10.9386  11.9393  12.0791
    12.2336  15.2662  16.9554  20.4702  21.0302  21.8493  22.1706  24.8665

          k = 0.0000 0.0000 0.0000 (  3053 PWs)   bands (ev):

   -20.0170 -19.9134  -8.4642  -7.6997  -3.5676  -3.5660  -3.5565  -3.5548
     2.9113   3.3240   4.0422   5.2591   5.5003   7.3563   7.7547   7.7568
     7.7885   7.7906   8.2109  10.6488  10.8049  10.9493  11.9341  12.0737
    12.2293  15.2623  16.9513  20.4684  21.0267  21.8395  22.1602  24.8667

          k = 0.0000 0.0115 0.0000 (  3063 PWs)   bands (ev):

   -20.0147 -19.9111  -8.4613  -7.6969  -3.5775  -3.5712  -3.5663  -3.5601
     2.9145   3.3272   4.0455   5.2623   5.5033   7.3593   7.7585   7.7650
     7.7920   7.7988   8.2143  10.6518  10.7965  10.9412  11.9380  12.0778
    12.2325  15.2653  16.9544  20.4697  21.0294  21.8468  22.1680  24.8665

          k = 0.0000 0.0231 0.0000 (  3069 PWs)   bands (ev):

   -20.0076 -19.9040  -8.4528  -7.6886  -3.6068  -3.5954  -3.5868  -3.5756
     2.9240   3.3369   4.0552   5.2720   5.5124   7.3683   7.7634   7.7959
     7.7961   7.8297   8.2245  10.6609  10.7711  10.9171  11.9499  12.0901
    12.2421  15.2741  16.9636  20.4737  21.0373  21.8687  22.1912  24.8659

          k = 0.0000 0.0346 0.0000 (  3067 PWs)   bands (ev):

   -19.9957 -19.8923  -8.4385  -7.6747  -3.6555  -3.6438  -3.6124  -3.6012
     2.9399   3.3529   4.0715   5.2881   5.5275   7.3832   7.7713   7.8027
     7.8473   7.8809   8.2414  10.6762  10.7291  10.8771  11.9698  12.1107
    12.2580  15.2888  16.9789  20.4802  21.0503  21.9048  22.2297  24.8641

          k = 0.0000 0.0462 0.0000 (  3069 PWs)   bands (ev):

   -19.9792 -19.8759  -8.4186  -7.6552  -3.7229  -3.7109  -3.6480  -3.6366
     2.9621   3.3754   4.0942   5.3107   5.5487   7.4041   7.7815   7.8112
     7.9186   7.9521   8.2649  10.6704  10.6976  10.8213  11.9981  12.1400
    12.2804  15.3094  17.0003  20.4889  21.0683  21.9547  22.2830  24.8602

          k = 0.0000 0.0577 0.0000 (  3059 PWs)   bands (ev):

   -19.9579 -19.8547  -8.3930  -7.6302  -3.8085  -3.7960  -3.6929  -3.6814
     2.9906   3.4043   4.1234   5.3397   5.5759   7.4310   7.7934   7.8212
     8.0095   8.0429   8.2950  10.5956  10.7250  10.7501  12.0350  12.1782
    12.3090  15.3359  17.0277  20.4995  21.0910  22.0178  22.3507  24.8525

          k = 0.0000 0.0693 0.0000 (  3059 PWs)   bands (ev):

   -19.9319 -19.8289  -8.3617  -7.5997  -3.9117  -3.8986  -3.7466  -3.7350
     3.0255   3.4397   4.1592   5.3752   5.6093   7.4638   7.8063   7.8320
     8.1194   8.1526   8.3316  10.5049  10.6638  10.7584  12.0809  12.2256
    12.3441  15.3681  17.0612  20.5114  21.1180  22.0932  22.4321  24.8391

          k = 0.0000 0.0808 0.0000 (  3054 PWs)   bands (ev):

   -19.9012 -19.7984  -8.3247  -7.5636  -4.0314  -4.0176  -3.8086  -3.7969
     3.0668   3.4814   4.2014   5.4171   5.6486   7.5024   7.8193   7.8428
     8.2477   8.2807   8.3745  10.3988  10.5629  10.7980  12.1362  12.2824
    12.3856  15.4060  17.1006  20.5241  21.1490  22.1796  22.5263  24.8175

          k = 0.0000 0.0924 0.0000 (  3056 PWs)   bands (ev):

   -19.8658 -19.7632  -8.2821  -7.5220  -4.1668  -4.1523  -3.8782  -3.8663
     3.1143   3.5296   4.2501   5.4655   5.6940   7.5467   7.8316   7.8529
     8.3935   8.4237   8.4263  10.2779  10.4478  10.8436  12.2009  12.3488
    12.4337  15.4497  17.1459  20.5368  21.1833  22.2757  22.6319  24.7848

          k = 0.0000 0.1039 0.0000 (  3060 PWs)   bands (ev):

   -19.8257 -19.7234  -8.2339  -7.4749  -4.3169  -4.3015  -3.9547  -3.9425
     3.1683   3.5842   4.3053   5.5204   5.7454   7.5965   7.8427   7.8615
     8.4790   8.5563   8.5889  10.1426  10.3191  10.8952  12.2755  12.4246
    12.4889  15.4990  17.1970  20.5486  21.2201  22.3791  22.7471  24.7383

          k = 0.0000 0.1155 0.0000 (  3064 PWs)   bands (ev):

   -19.7809 -19.6788  -8.1800  -7.4224  -4.4807  -4.4643  -4.0373  -4.0249
     3.2285   3.6452   4.3670   5.5816   5.8029   7.6511   7.8523   7.8679
     8.5404   8.7350   8.7674   9.9938  10.1774  10.9528  12.3599  12.5081
    12.5528  15.5538  17.2539  20.5586  21.2583  22.4872  22.8696  24.6763

          k = 0.0000 0.1270 0.0000 (  3058 PWs)   bands (ev):

   -19.7314 -19.6296  -8.1205  -7.3643  -4.6572  -4.6397  -4.1252  -4.1127
     3.2951   3.7126   4.4352   5.6493   5.8663   7.7093   7.8613   7.8716
     8.6079   8.9290   8.9613   9.8320  10.0233  11.0164  12.4540  12.5931
    12.6318  15.6141  17.3164  20.5654  21.2963  22.5956  22.9955  24.3954

          k = 0.0000 0.1386 0.0000 (  3046 PWs)   bands (ev):

   -19.6772 -19.5758  -8.0555  -7.3008  -4.8451  -4.8266  -4.2179  -4.2051
     3.3681   3.7864   4.5099   5.7235   5.9357   7.7658   7.8722   7.8741
     8.6814   9.1374   9.1695   9.6579   9.8575  11.0860  12.5578  12.6733
    12.7318  15.6798  17.3846  20.5676  21.3315  22.6974  23.1189  24.0859

          k = 0.0000 0.1501 0.0000 (  3044 PWs)   bands (ev):

   -19.6183 -19.5173  -7.9849  -7.2320  -5.0437  -5.0241  -4.3145  -4.3016
     3.4473   3.8666   4.5911   5.8040   6.0110   7.8049   7.8692   7.9062
     8.7610   9.3595   9.3913   9.4724   9.6806  11.1615  12.6706  12.7543
    12.8471  15.7508  17.4582  20.5635  21.3600  22.7795  23.2293  23.8121

          k = 0.0000 0.1617 0.0000 (  3034 PWs)   bands (ev):

   -19.5547 -19.4542  -7.9087  -7.1578  -5.2518  -5.2311  -4.4144  -4.4013
     3.5329   3.9532   4.6788   5.8910   6.0921   7.8157   7.8625   7.9679
     8.8463   9.2766   9.4935   9.5943   9.6258  11.2429  12.7921  12.8398
    12.9736  15.8268  17.5372  20.5513  21.3757  22.8177  23.3103  23.6016

          k = 0.0000 0.1732 0.0000 (  3036 PWs)   bands (ev):

   -19.4865 -19.3864  -7.8271  -7.0782  -5.4687  -5.4467  -4.5170  -4.5036
     3.6249   4.0461   4.7730   5.9843   6.1790   7.8112   7.8519   8.0459
     8.9369   9.0716   9.2975   9.8410   9.8724  11.3302  12.9216  12.9308
    13.1096  15.9078  17.6214  20.5289  21.3692  22.7831  23.3408  23.4872

          k = 0.0000 0.1848 0.0000 (  3042 PWs)   bands (ev):

   -19.4137 -19.3140  -7.7401  -6.9934  -5.6932  -5.6701  -4.6215  -4.6079
     3.7231   4.1454   4.8736   6.0840   6.2715   7.7990   7.8376   8.1308
     8.8599   9.0206   9.1055  10.0990  10.1301  11.4232  13.0276  13.0581
    13.2542  15.9935  17.7107  20.4940  21.3280  22.6909  23.3097  23.4584

          k = 0.0000 0.1963 0.0000 (  3050 PWs)   bands (ev):

   -19.3362 -19.2371  -7.6476  -6.9033  -5.9247  -5.9003  -4.7275  -4.7137
     3.8276   4.2510   4.9807   6.1901   6.3693   7.7819   7.8196   8.2142
     8.6484   8.8681   9.1474  10.3674  10.3983  11.5221  13.1304  13.2007
    13.4067  16.0837  17.8048  20.4446  21.2400  22.5978  23.2274  23.4579

          k = 0.0000 0.2078 0.0000 (  3052 PWs)   bands (ev):

   -19.2542 -19.1555  -7.5498  -6.8081  -6.1623  -6.1366  -4.8343  -4.8203
     3.9384   4.3630   5.0943   6.3024   6.4722   7.7609   7.7983   8.2494
     8.4839   8.6476   9.2557  10.6455  10.6762  11.6266  13.2391  13.3484
    13.5661  16.1781  17.9036  20.3789  21.1016  22.5401  23.1133  23.4351

          k = 0.0000 0.2194 0.0000 (  3050 PWs)   bands (ev):

   -19.1675 -19.0694  -7.4466  -6.7077  -6.4052  -6.3782  -4.9415  -4.9273
     4.0555   4.4812   5.2143   6.4209   6.5796   7.7370   7.7739   8.1023
     8.4184   8.5013   9.3720  10.9327  10.9631  11.7368  13.3537  13.5000
    13.7316  16.2763  18.0067  20.2958  20.9214  22.5227  22.9811  23.3554

          k = 0.0000 0.2309 0.0000 (  3046 PWs)   bands (ev):

   -19.0762 -18.9787  -7.3382  -6.6528  -6.6259  -6.6008  -5.0486  -5.0341
     4.1788   4.6057   5.3408   6.5453   6.6901   7.7110   7.7468   7.8745
     8.1826   8.6002   9.4948  11.2281  11.2584  11.8526  13.4743  13.6540
    13.9021  16.3778  18.1136  20.1952  20.7137  22.5339  22.8361  23.2003

          k = 0.0000 0.2425 0.0000 (  3046 PWs)   bands (ev):

   -18.9804 -18.8834  -7.2246  -6.9043  -6.8749  -6.4915  -5.1551  -5.1405
     4.3084   4.7363   5.4737   6.6755   6.8007   7.6329   7.6840   7.7174
     7.9414   8.7168   9.6240  11.5312  11.5612  11.9738  13.6008  13.8090
    14.0767  16.4819  18.2236  20.0777  20.4920  22.5486  22.6767  22.9830

          k = 0.0000 0.2540 0.0000 (  3050 PWs)   bands (ev):

   -18.8800 -18.7837  -7.1602  -7.1286  -7.1049  -6.3761  -5.2607  -5.2459
     4.4442   4.8730   5.6129   6.8104   6.9003   7.3964   7.6577   7.6819
     7.7006   8.8426   9.7595  11.8412  11.8710  12.1005  13.7332  13.9633
    14.2542  16.5879  18.3355  19.9454  20.2658  22.4771  22.4968  22.8015

          k = 0.0000 0.2656 0.0000 (  3052 PWs)   bands (ev):

   -18.7751 -18.6794  -7.4173  -7.3851  -6.9818  -6.2558  -5.3650  -5.3500
     4.5862   5.0156   5.7584   6.9264   6.9468   7.2276   7.4499   7.6352
     7.6550   8.9756   9.9013  12.1574  12.1871  12.2324  13.8715  14.1151
    14.4335  16.6945  18.4476  19.8016  20.0417  22.2073  22.2888  22.6967

          k = 0.0000 0.2771 0.0000 (  3050 PWs)   bands (ev):

   -18.6657 -18.5707  -7.6773  -7.6438  -6.8531  -6.1307  -5.4677  -5.4524
     4.7344   5.1638   5.9101   6.7574   7.0512   7.2377   7.2429   7.6230
     7.6235   9.1151  10.0493  12.3695  12.4793  12.5087  14.0156  14.2622
    14.6132  16.8002  18.5560  19.6515  19.8243  21.8567  22.0476  22.5295

          k = 0.0000 0.2887 0.0000 (  3048 PWs)   bands (ev):

   -18.5518 -18.4575  -7.9392  -7.9043  -6.7195  -6.0010  -5.5683  -5.5529
     4.8886   5.3170   6.0671   6.5074   6.8997   7.2809   7.3140   7.5947
     7.6387   9.2607  10.2036  12.5116  12.8059  12.8352  14.1654  14.4022
    14.7915  16.9028  18.6529  19.5045  19.6175  21.4851  21.7740  22.3684

          k = 0.0000 0.3002 0.0000 (  3040 PWs)   bands (ev):

   -18.4334 -18.3399  -8.2023  -8.1662  -6.5811  -5.8667  -5.6668  -5.6512
     5.0489   5.4738   6.1990   6.2706   6.6520   7.3557   7.4063   7.5856
     7.7036   9.4121  10.3640  12.6584  13.1368  13.1658  14.3209  14.5324
    14.9667  16.9993  18.7200  19.3802  19.4243  21.1099  21.4746  22.0758

          k = 0.0000 0.3118 0.0000 (  3042 PWs)   bands (ev):

   -18.3107 -18.2179  -8.4665  -8.4291  -6.4381  -5.7627  -5.7469  -5.7281
     5.2150   5.6295   5.9558   6.4016   6.4080   7.3593   7.4591   7.6626
     7.8168   9.5694  10.5305  12.8098  13.4710  13.4998  14.4821  14.6494
    15.1361  17.0853  18.7219  19.2482  19.3140  20.7399  21.1595  21.6305

          k = 0.0000 0.3233 0.0000 (  3042 PWs)   bands (ev):

   -18.1835 -18.0915  -8.7312  -8.6924  -6.2906  -5.8559  -5.8400  -5.5853
     5.3859   5.6781   5.7607   6.1782   6.5827   7.3431   7.4428   7.8170
     7.9585   9.7322  10.7031  12.9654  13.8079  13.8364  14.6488  14.7498
    15.2967  17.1549  18.6372  19.0920  19.3264  20.3816  20.8399  21.1924

          k = 0.0000 0.3349 0.0000 (  3034 PWs)   bands (ev):

   -18.0520 -17.9608  -8.9960  -8.9559  -6.1388  -5.9461  -5.9301  -5.4383
     5.3892   5.5705   5.7328   6.1182   6.7629   7.3200   7.4123   7.9927
     8.1160   9.9006  10.8819  13.1249  14.1466  14.1748  14.8210  14.8297
    15.4439  17.2002  18.4947  18.9581  19.3837  20.0407  20.5290  20.7690

          k = 0.0000 0.3464 0.0000 (  3038 PWs)   bands (ev):

   -17.9162 -17.8258  -9.2607  -9.2192  -6.0332  -6.0171  -5.9828  -5.2876
     5.1080   5.5168   5.7515   6.2512   6.9442   7.2990   7.3789   8.1788
     8.2840  10.0743  11.0666  13.2877  14.4862  14.5141  14.8850  14.9985
    15.5719  17.2122  18.3296  18.8449  19.4342  19.7229  20.2497  20.3696

          k = 0.0000 0.3580 0.0000 (  3038 PWs)   bands (ev):

   -17.7761 -17.6866  -9.5249  -9.4821  -6.1171  -6.1008  -5.8230  -5.1332
     4.8238   5.2614   5.9402   6.4292   7.1061   7.3029   7.3451   8.3727
     8.4602  10.2533  11.2573  13.4532  14.8259  14.8534  14.9117  15.1813
    15.6721  17.1826  18.1631  18.7402  19.4102  19.4347  20.0103  20.0521

          k = 0.0000 0.3695 0.0000 (  3036 PWs)   bands (ev):

   -17.6318 -17.5431  -9.7882  -9.7441  -6.1974  -6.1810  -5.6595  -4.9755
     4.5397   4.9978   6.1341   6.6212   7.1700   7.3124   7.4121   8.5737
     8.6433  10.4375  11.4540  13.6203  14.9066  15.1646  15.1917  15.3690
    15.7339  17.1067  18.0096  18.6101  19.1857  19.2521  19.7201  19.9781

          k = 0.0000 0.3811 0.0000 (  3042 PWs)   bands (ev):

   -17.4833 -17.3955 -10.0506 -10.0051  -6.2741  -6.2576  -5.4926  -4.8147
     4.2564   4.7323   6.3317   6.8202   7.1630   7.2824   7.6012   8.7815
     8.8327  10.6266  11.6565  13.7875  14.8676  15.5011  15.5278  15.5616
    15.7451  16.9860  17.8803  18.4069  18.9835  19.0075  19.5358  19.9461

          k = 0.0000 0.3926 0.0000 (  3042 PWs)   bands (ev):

   -17.3307 -17.2438 -10.3114 -10.2647  -6.3470  -6.3304  -5.3228  -4.6513
     3.9749   4.4673   6.5303   7.0182   7.1475   7.2621   7.8109   8.9958
     9.0279  10.8205  11.8648  13.9520  14.7948  15.6955  15.7589  15.8344
    15.8606  16.8273  17.7792  18.1217  18.7416  18.8139  19.4687  19.8452

          k = 0.0000 0.4041 0.0000 (  3046 PWs)   bands (ev):

   -17.1741 -17.0882 -10.5706 -10.5226  -6.4160  -6.3993  -5.1504  -4.4858
     3.6960   4.2041   6.7213   7.1428   7.1540   7.3120   8.0307   9.2165
     9.2285  11.0189  12.0788  14.1075  14.6924  15.5823  15.9604  16.1632
    16.1886  16.6411  17.6933  17.7875  18.4925  18.6566  19.4876  19.6558

          k = 0.0000 0.4157 0.0000 (  3028 PWs)   bands (ev):

   -17.0136 -16.9285 -10.8279 -10.7786  -6.4810  -6.4643  -4.9759  -4.3185
     3.4205   3.9440   6.8745   7.1580   7.1818   7.5016   8.2583   9.4343
     9.4436  11.2217  12.2984  14.2324  14.5799  15.4113  16.1659  16.4386
    16.4859  16.5106  17.4333  17.5817  18.3025  18.4995  19.4257  19.5539

          k = 0.0000 0.4272 0.0000 (  3044 PWs)   bands (ev):

   -16.8493 -16.7652 -11.0830 -11.0323  -6.5420  -6.5251  -4.8000  -4.1503
     3.1492   3.6878   6.9406   7.1364   7.3145   7.7248   8.4928   9.6449
     9.6769  11.4283  12.5234  14.2347  14.5460  15.1939  16.2304  16.3750
    16.8011  16.8249  17.0765  17.3965  18.2106  18.3321  19.1869  19.6367

          k = 0.0000 0.4388 0.0000 (  3050 PWs)   bands (ev):

   -16.6813 -16.5981 -11.3356 -11.2836  -6.5988  -6.5818  -4.6234  -3.9818
     2.8834   3.4369   6.9471   7.1120   7.5139   7.9586   8.7339   9.8600
     9.9165  11.6385  12.7536  14.0773  14.6213  14.9422  16.0255  16.5870
    16.7310  17.1069  17.1298  17.1398  18.1470  18.2036  18.9512  19.6966

          k = 0.0000 0.4503 0.0000 (  3056 PWs)   bands (ev):

   -16.5098 -16.4276 -11.5854 -11.5321  -6.6513  -6.6343  -4.4471  -3.8141
     2.6240   3.1923   6.9355   7.0881   7.7387   8.1998   8.9815  10.0793
    10.1623  11.8514  12.9886  13.8597  14.6668  14.6923  15.8280  16.4162
    16.8003  16.8439  17.4015  17.4232  17.9432  18.2381  18.7242  19.6811

          k = 0.0000 0.4619 0.0000 (  3060 PWs)   bands (ev):

   -16.3351 -16.2538 -11.8320 -11.7774  -6.6994  -6.6824  -4.2721  -3.6481
     2.3725   2.9555   6.9189   7.0655   7.9760   8.4476   9.2353  10.3025
    10.4142  12.0661  13.2276  13.6139  14.3758  14.7063  15.6256  16.1715
    16.5261  17.0169  17.6829  17.7033  17.7257  18.2692  18.5223  19.6054

          k = 0.0000 0.4734 0.0000 (  3054 PWs)   bands (ev):

   -16.1574 -16.0770 -12.0749 -12.0192  -6.7432  -6.7262  -4.0999  -3.4854
     2.1304   2.7281   6.9012   7.0446   8.2218   8.7016   9.4953  10.5290
    10.6721  12.2810  13.3499  13.4671  14.0780  14.6378  15.3883  16.0442
    16.1997  17.2321  17.5043  17.9488  17.9677  18.1813  18.4444  19.5081

          k = 0.0000 0.4850 0.0000 (  3052 PWs)   bands (ev):

   -15.9772 -15.8978 -12.3138 -12.2569  -6.7825  -6.7654  -3.9323  -3.3276
     1.8998   2.5120   6.8840   7.0256   8.4745   8.9615   9.7613  10.7583
    10.9360  12.4926  13.0744  13.6505  13.8340  14.4897  15.1189  15.8687
    16.0203  17.2933  17.4449  17.9737  18.1968  18.2141  18.4810  19.3991

          k = 0.0000 0.4965 0.0000 (  3064 PWs)   bands (ev):

   -15.7951 -15.7166 -12.5478 -12.4898  -6.8173  -6.8001  -3.7714  -3.1769
     1.6829   2.3093   6.8682   7.0086   8.7333   9.2272  10.0330  10.9896
    11.2058  12.6760  12.8119  13.4223  14.0015  14.2824  14.8472  15.5364
    16.0338  17.1152  17.6475  17.7451  18.4244  18.4400  18.5326  19.2794

          k = 0.0000 0.5081 0.0000 (  3052 PWs)   bands (ev):

   -15.6122 -15.5346 -12.7758 -12.7169  -6.8475  -6.8303  -3.6198  -3.0357
     1.4826   2.1229   6.8539   6.9937   8.9979   9.4986  10.3104  11.2218
    11.4812  12.4804  12.9077  13.1123  14.0376  14.2520  14.5951  15.2053
    16.0186  17.0035  17.4917  17.8538  18.5840  18.6289  18.6428  19.1504

          k = 0.0000 0.5196 0.0000 (  3048 PWs)   bands (ev):

   -15.4300 -15.3533 -12.9963 -12.9363  -6.8732  -6.8559  -3.4809  -2.9070
     1.3022   1.9558   6.8417   6.9810   9.2676   9.7755  10.5929  11.4532
    11.7621  12.1873  12.7973  13.0609  13.7789  14.3789  14.5046  14.8823
    15.9322  16.9831  17.2389  18.0327  18.6378  18.8078  18.8199  19.0150

          k = 0.0000 0.5312 0.0000 (  3046 PWs)   bands (ev):

   -15.2515 -15.1754 -13.2062 -13.1455  -6.8942  -6.8769  -3.3583  -2.7942
     1.1456   1.8114   6.8314   6.9705   9.5421  10.0576  10.8799  11.6804
    11.8905  12.0464  12.4842  13.1186  13.5520  14.2245  14.5196  14.8039
    15.7806  16.9787  17.0386  18.1811  18.7040  18.8782  18.9586  18.9689

          k = 0.0000 0.5427 0.0000 (  3046 PWs)   bands (ev):

   -15.0818 -15.0063 -13.4003 -13.3390  -6.9106  -6.8933  -3.2565  -2.7010
     1.0171   1.6935   6.8234   6.9623   9.8208  10.3449  11.1696  11.5922
    11.9005  12.1537  12.3549  12.9855  13.4141  14.1736  14.2071  15.0593
    15.5972  16.7133  17.1316  18.2860  18.7476  18.7924  19.0787  19.0875

          k = 0.0000 0.5543 0.0000 (  3050 PWs)   bands (ev):

   -14.9313 -14.8560 -13.5684 -13.5067  -6.9223  -6.9049  -3.1796  -2.6311
     0.9212   1.6059   6.8176   6.9565  10.1027  10.6369  11.2860  11.4728
    11.8500  12.0945  12.6443  12.7383  13.2941  13.8878  14.2286  15.3265
    15.4139  16.4452  17.2286  18.3468  18.6341  18.8971  19.1661  19.1738

          k = 0.0000 0.5658 0.0000 (  3050 PWs)   bands (ev):

   -14.8197 -14.7444 -13.6905 -13.6288  -6.9293  -6.9120  -3.1316  -2.5876
     0.8618   1.5519   6.8141   6.9529  10.3835  10.9331  11.0013  11.5427
    11.7568  12.2052  12.5086  12.9451  13.1718  13.5723  14.3206  15.2659
    15.5907  16.1807  17.3024  18.3758  18.5537  18.9906  19.2193  19.2262

          k = 0.0000 0.5774 0.0000 (  3052 PWs)   bands (ev):

   -14.7766 -14.7013 -13.7370 -13.6754  -6.9316  -6.9144  -3.1152  -2.5729
     0.8416   1.5336   6.8129   6.9518  10.5940  10.7881  11.2053  11.2667
    11.9735  12.1137  12.4528  13.1144  13.2122  13.3004  14.3660  15.2048
    15.7796  15.9917  17.3303  18.3841  18.5240  19.0307  19.2372  19.2437

          k =-0.0067 0.5774 0.0000 (  3048 PWs)   bands (ev):

   -14.7760 -14.7007 -13.7364 -13.6747  -6.9352  -6.9179  -3.1143  -2.5719
     0.8415   1.5332   6.8177   6.9566  10.5949  10.7891  11.2058  11.2677
    11.9730  12.1148  12.4521  13.1153  13.2128  13.3014  14.3656  15.2059
    15.7793  15.9922  17.3282  18.3734  18.5243  19.0043  19.2341  19.2703

          k =-0.0133 0.5774 0.0000 (  3044 PWs)   bands (ev):

   -14.7739 -14.6986 -13.7344 -13.6727  -6.9459  -6.9284  -3.1114  -2.5691
     0.8411   1.5323   6.8319   6.9710  10.5973  10.7919  11.2072  11.2707
    11.9712  12.1178  12.4502  13.1180  13.2148  13.3044  14.3642  15.2090
    15.7783  15.9935  17.3218  18.3419  18.5252  18.9459  19.2250  19.3292

          k =-0.0200 0.5774 0.0000 (  3048 PWs)   bands (ev):

   -14.7706 -14.6953 -13.7310 -13.6694  -6.9636  -6.9459  -3.1066  -2.5643
     0.8403   1.5307   6.8555   6.9949  10.6015  10.7965  11.2096  11.2757
    11.9681  12.1229  12.4473  13.1225  13.2181  13.3094  14.3621  15.2143
    15.7765  15.9958  17.3113  18.2913  18.5265  18.8766  19.2103  19.3993

          k =-0.0267 0.5774 0.0000 (  3040 PWs)   bands (ev):

   -14.7658 -14.6906 -13.7263 -13.6648  -6.9882  -6.9703  -3.0998  -2.5576
     0.8393   1.5284   6.8885   7.0282  10.6073  10.8030  11.2128  11.2826
    11.9631  12.1301  12.4436  13.1289  13.2227  13.3163  14.3592  15.2216
    15.7739  15.9989  17.2972  18.2239  18.5279  18.8037  19.1908  19.4735

          k =-0.0333 0.5774 0.0000 (  3040 PWs)   bands (ev):

   -14.7597 -14.6846 -13.7203 -13.6588  -7.0197  -7.0016  -3.0912  -2.5491
     0.8380   1.5255   6.9306   7.0709  10.6148  10.8113  11.2170  11.2916
    11.9559  12.1392  12.4396  13.1370  13.2285  13.3253  14.3557  15.2310
    15.7702  16.0027  17.2799  18.1428  18.5293  18.7295  19.1671  19.5269

          k =-0.0400 0.5774 0.0000 (  3050 PWs)   bands (ev):

   -14.7523 -14.6772 -13.7130 -13.6515  -7.0580  -7.0395  -3.0806  -2.5387
     0.8363   1.5218   6.9818   7.1228  10.6239  10.8215  11.2220  11.3026
    11.9456  12.1505  12.4359  13.1470  13.2356  13.3362  14.3520  15.2425
    15.7652  16.0073  17.2600  18.0509  18.5300  18.6552  19.1406  19.5288

          k =-0.0467 0.5774 0.0000 (  3042 PWs)   bands (ev):

   -14.7435 -14.6685 -13.7044 -13.6428  -7.1027  -7.0838  -3.0680  -2.5263
     0.8343   1.5174   7.0418   7.1837  10.6346  10.8336  11.2277  11.3155
    11.9314  12.1637  12.4330  13.1588  13.2439  13.3491  14.3481  15.2561
    15.7585  16.0126  17.2382  17.9513  18.5295  18.5814  19.1125  19.5310

          k =-0.0533 0.5774 0.0000 (  3042 PWs)   bands (ev):

   -14.7334 -14.6584 -13.6944 -13.6329  -7.1538  -7.1345  -3.0536  -2.5121
     0.8318   1.5123   7.1105   7.2533  10.6470  10.8474  11.2342  11.3304
    11.9127  12.1790  12.4318  13.1724  13.2533  13.3639  14.3444  15.2718
    15.7499  16.0184  17.2150  17.8470  18.5086  18.5268  19.0844  19.5334

          k =-0.0600 0.5774 0.0000 (  3034 PWs)   bands (ev):

   -14.7219 -14.6470 -13.6831 -13.6217  -7.2110  -7.1912  -3.0372  -2.4959
     0.8288   1.5064   7.1876   7.3316  10.6610  10.8631  11.2414  11.3473
    11.8885  12.1963  12.4329  13.1878  13.2639  13.3807  14.3411  15.2896
    15.7388  16.0246  17.1913  17.7405  18.4372  18.5209  19.0578  19.5358

          k =-0.0667 0.5774 0.0000 (  3038 PWs)   bands (ev):

   -14.7091 -14.6343 -13.6705 -13.6092  -7.2742  -7.2537  -3.0189  -2.4779
     0.8254   1.4996   7.2727   7.4181  10.6765  10.8806  11.2491  11.3662
    11.8582  12.2157  12.4370  13.2050  13.2755  13.3994  14.3386  15.3095
    15.7249  16.0310  17.1676  17.6344  18.3674  18.5107  19.0346  19.5383

          k =-0.0733 0.5774 0.0000 (  3038 PWs)   bands (ev):

   -14.6949 -14.6203 -13.6567 -13.5954  -7.3429  -7.3218  -2.9987  -2.4580
     0.8214   1.4919   7.3657   7.5127  10.6937  10.8999  11.2572  11.3870
    11.8214  12.2370  12.4443  13.2240  13.2880  13.4201  14.3372  15.3315
    15.7076  16.0376  17.1446  17.5307  18.2996  18.4950  19.0165  19.5407

          k =-0.0800 0.5774 0.0000 (  3034 PWs)   bands (ev):

   -14.6794 -14.6048 -13.6416 -13.5803  -7.4170  -7.3953  -2.9766  -2.4362
     0.8167   1.4833   7.4663   7.6150  10.7124  10.9210  11.2658  11.4098
    11.7778  12.2604  12.4553  13.2448  13.3015  13.4427  14.3371  15.3555
    15.6863  16.0441  17.1230  17.4315  18.2340  18.4731  19.0046  19.5428

          k =-0.0867 0.5774 0.0000 (  3038 PWs)   bands (ev):

   -14.6625 -14.5881 -13.6252 -13.5640  -7.4962  -7.4738  -2.9525  -2.4125
     0.8114   1.4737   7.5740   7.7248  10.7327  10.9439  11.2745  11.4345
    11.7275  12.2858  12.4699  13.2674  13.3157  13.4672  14.3387  15.3817
    15.6607  16.0503  17.1032  17.3386  18.1711  18.4445  18.9998  19.5445

          k =-0.0933 0.5774 0.0000 (  3036 PWs)   bands (ev):

   -14.6443 -14.5700 -13.6075 -13.5464  -7.5803  -7.5572  -2.9266  -2.3870
     0.8053   1.4630   7.6886   7.8418  10.7545  10.9685  11.2834  11.4611
    11.6706  12.3132  12.4882  13.2918  13.3307  13.4935  14.3422  15.4099
    15.6304  16.0559  17.0855  17.2533  18.1112  18.4096  19.0022  19.5457

          k =-0.1000 0.5774 0.0000 (  3024 PWs)   bands (ev):

   -14.6247 -14.5506 -13.5887 -13.5276  -7.6689  -7.6450  -2.8987  -2.3595
     0.7984   1.4511   7.8098   7.9657  10.7778  10.9947  11.2922  11.4896
    11.6077  12.3426  12.5099  13.3180  13.3463  13.5217  14.3478  15.4403
    15.5953  16.0607  17.0705  17.1768  18.0546  18.3691  19.0113  19.5462

          k =-0.1067 0.5774 0.0000 (  3016 PWs)   bands (ev):

   -14.6038 -14.5299 -13.5686 -13.5077  -7.7616  -7.7370  -2.8689  -2.3301
     0.7905   1.4381   7.9372   8.0961  10.8025  11.0226  11.3007  11.5201
    11.5392  12.3740  12.5350  13.3460  13.3623  13.5517  14.3557  15.4727
    15.5556  16.0644  17.0583  17.1098  18.0017  18.3241  19.0264  19.5457

          k =-0.1133 0.5774 0.0000 (  3016 PWs)   bands (ev):

   -14.5815 -14.5077 -13.5474 -13.4865  -7.8585  -7.8330  -2.8372  -2.2989
     0.7816   1.4238   8.0703   8.2327  10.8288  11.0521  11.3089  11.4656
    11.5524  12.4074  12.5633  13.3757  13.3788  13.5836  14.3661  15.5071
    15.5117  16.0668  17.0490  17.0527  17.9530  18.2754  19.0470  19.5440

          k =-0.1200 0.5774 0.0000 (  3018 PWs)   bands (ev):

   -14.5579 -14.4843 -13.5250 -13.4642  -7.9589  -7.9327  -2.8035  -2.2658
     0.7715   1.4082   8.2089   8.3751  10.8564  11.0827  11.3165  11.3880
    11.5866  12.4427  12.5946  13.3955  13.4073  13.6171  14.3790  15.4645
    15.5437  16.0674  17.0053  17.0430  17.9088  18.2240  19.0723  19.5409

          k =-0.1267 0.5774 0.0000 (  3014 PWs)   bands (ev):

   -14.5329 -14.4596 -13.5015 -13.4407  -8.0628  -8.0357  -2.7680  -2.2308
     0.7603   1.3911   8.3525   8.5232  10.8854  11.1135  11.3078  11.3232
    11.6226  12.4801  12.6288  13.4124  13.4406  13.6524  14.3946  15.4151
    15.5824  16.0660  16.9672  17.0400  17.8695  18.1706  19.1017  19.5360

          k =-0.1333 0.5774 0.0000 (  3018 PWs)   bands (ev):

   -14.5066 -14.4335 -13.4769 -13.4162  -8.1697  -8.1418  -2.7306  -2.1939
     0.7478   1.3725   8.5008   8.6764  10.9157  11.1382  11.2320  11.3289
    11.6605  12.5194  12.6658  13.4294  13.4756  13.6894  14.4128  15.3647
    15.6231  16.0623  16.9377  17.0403  17.8356  18.1160  19.1348  19.5290

          k =-0.1400 0.5774 0.0000 (  3022 PWs)   bands (ev):

   -14.4790 -14.4060 -13.4512 -13.3907  -8.2795  -8.2508  -2.6913  -2.1552
     0.7338   1.3523   8.6534   8.8346  10.9473  11.1093  11.2088  11.3334
    11.7002  12.5606  12.7054  13.4464  13.5125  13.7279  14.4338  15.3148
    15.6659  16.0562  16.9159  17.0437  17.8074  18.0606  19.1714  19.5193

          k =-0.1467 0.5774 0.0000 (  3018 PWs)   bands (ev):

   -14.4500 -14.3772 -13.4245 -13.3641  -8.3918  -8.3622  -2.6501  -2.1146
     0.7183   1.3305   8.8097   8.9973  10.9802  11.0276  11.2379  11.3365
    11.7416  12.6038  12.7476  13.4633  13.5511  13.7680  14.4574  15.2668
    15.7107  16.0473  16.9009  17.0502  17.7852  18.0049  19.2110  19.5062

          k =-0.1533 0.5774 0.0000 (  3018 PWs)   bands (ev):

   -14.4197 -14.3471 -13.3969 -13.3365  -8.5064  -8.4759  -2.6070  -2.0722
     0.7011   1.3068   8.9694   9.1642  10.9376  11.0143  11.2755  11.3379
    11.7847  12.6490  12.7923  13.4802  13.5914  13.8096  14.4837  15.2218
    15.7577  16.0357  16.8918  17.0595  17.7693  17.9493  19.2536  19.4890

          k =-0.1600 0.5774 0.0000 (  3010 PWs)   bands (ev):

   -14.3880 -14.3157 -13.3683 -13.3081  -8.6229  -8.5916  -2.5620  -2.0278
     0.6822   1.2813   9.1318   9.3350  10.8454  11.0495  11.3162  11.3376
    11.8296  12.6960  12.8395  13.4971  13.6335  13.8525  14.5125  15.1810
    15.8067  16.0213  16.8875  17.0717  17.7597  17.8941  19.2989  19.4661

          k =-0.1667 0.5774 0.0000 (  3008 PWs)   bands (ev):

   -14.3549 -14.2829 -13.3390 -13.2788  -8.7412  -8.7091  -2.5151  -1.9816
     0.6614   1.2538   9.2964   9.5092  10.7527  11.0858  11.3353  11.3590
    11.8761  12.7449  12.8890  13.5142  13.6774  13.8967  14.5439  15.1454
    15.8577  16.0043  16.8873  17.0865  17.7565  17.8395  19.3468  19.4352

          k =-0.1733 0.5774 0.0000 (  3002 PWs)   bands (ev):

   -14.3206 -14.2488 -13.3088 -13.2487  -8.8610  -8.8280  -2.4663  -1.9336
     0.6385   1.2243   9.4624   9.6865  10.6606  11.1231  11.3309  11.4037
    11.9242  12.7958  12.9409  13.5316  13.7230  13.9421  14.5778  15.1157
    15.9108  15.9849  16.8904  17.1036  17.7598  17.7859  19.3926  19.3972

          k =-0.1800 0.5774 0.0000 (  3008 PWs)   bands (ev):

   -14.2849 -14.2134 -13.2780 -13.2180  -8.9819  -8.9481  -2.4156  -1.8837
     0.6135   1.1927   9.6286   9.8665  10.5705  11.1613  11.3245  11.4501
    11.9738  12.8485  12.9950  13.5496  13.7704  13.9884  14.6140  15.0923
    15.9633  15.9659  16.8960  17.1228  17.7334  17.7694  19.3318  19.4501

          k =-0.1867 0.5774 0.0000 (  3008 PWs)   bands (ev):

   -14.2478 -14.1766 -13.2466 -13.1866  -9.1038  -9.0691  -2.3631  -1.8320
     0.5863   1.1588   9.7927  10.0487  10.4846  11.2004  11.3161  11.4982
    12.0249  12.9031  13.0514  13.5686  13.8194  14.0356  14.6525  15.0755
    15.9401  16.0231  16.9034  17.1438  17.6824  17.7852  19.2217  19.2435

          k =-0.1933 0.5774 0.0000 (  3012 PWs)   bands (ev):

   -14.2094 -14.1385 -13.2147 -13.1548  -9.2262  -9.1907  -2.3087  -1.7785
     0.5567   1.1227   9.9491  10.2325  10.4084  11.2403  11.3060  11.5480
    12.0774  12.9595  13.1101  13.5887  13.8703  14.0833  14.6933  15.0654
    15.9158  16.0823  16.9122  17.1662  17.6329  17.8069  18.9867  19.1190

          k =-0.2000 0.5774 0.0000 (  3012 PWs)   bands (ev):

   -14.1697 -14.0991 -13.1824 -13.1227  -9.3490  -9.3127  -2.2524  -1.7231
     0.5246   1.0842  10.0759  10.3636  10.4173  11.2809  11.2944  11.5996
    12.1312  13.0177  13.1709  13.6106  13.9229  14.1315  14.7362  15.0619
    15.8909  16.1434  16.9216  17.1892  17.5853  17.8342  18.7550  18.9582

          k =-0.2067 0.5774 0.0000 (  3020 PWs)   bands (ev):

   -14.1287 -14.0584 -13.1501 -13.0904  -9.4717  -9.4347  -2.1943  -1.6659
     0.4899   1.0432  10.1110  10.4120  10.6018  11.2823  11.3221  11.6529
    12.1862  13.0777  13.2339  13.6344  13.9772  14.1796  14.7810  15.0648
    15.8662  16.2066  16.9313  17.2119  17.5396  17.8669  18.5282  18.7704

          k =-0.2133 0.5774 0.0000 (  3020 PWs)   bands (ev):

   -14.0863 -14.0163 -13.1177 -13.0581  -9.5942  -9.5563  -2.1343  -1.6068
     0.4525   0.9997  10.0648  10.5427  10.7839  11.2717  11.3638  11.7083
    12.2424  13.1395  13.2991  13.6607  14.0333  14.2276  14.8277  15.0738
    15.8424  16.2717  16.9407  17.2325  17.4962  17.9048  18.3082  18.5663

          k =-0.2200 0.5774 0.0000 (  3012 PWs)   bands (ev):

   -14.0426 -13.9729 -13.0855 -13.0260  -9.7159  -9.6773  -2.0724  -1.5459
     0.4123   0.9537   9.9971  10.6954  10.9569  11.2689  11.4059  11.7657
    12.2995  13.2031  13.3664  13.6897  14.0911  14.2748  14.8762  15.0883
    15.8203  16.3388  16.9494  17.2476  17.4551  17.9474  18.0987  18.3532

          k =-0.2267 0.5774 0.0000 (  3004 PWs)   bands (ev):

   -13.9975 -13.9282 -13.0539 -12.9944  -9.8366  -9.7973  -2.0087  -1.4832
     0.3691   0.9050   9.9256  10.8513  11.0932  11.3012  11.4483  11.8256
    12.3574  13.2684  13.4358  13.7218  14.1507  14.3210  14.9262  15.1081
    15.8009  16.4077  16.9569  17.2501  17.4167  17.9070  17.9946  18.1358

          k =-0.2333 0.5774 0.0000 (  3008 PWs)   bands (ev):

   -13.9511 -13.8821 -13.0231 -12.9636  -9.9557  -9.9157  -1.9431  -1.4187
     0.3230   0.8537   9.8551  11.0048  11.1425  11.4185  11.4908  11.8882
    12.4159  13.3354  13.5073  13.7573  14.2121  14.3656  14.9775  15.1325
    15.7849  16.4785  16.9628  17.2241  17.3812  17.7487  17.9169  18.0461

          k =-0.2400 0.5774 0.0000 (  3008 PWs)   bands (ev):

   -13.9034 -13.8348 -12.9935 -12.9340 -10.0729 -10.0322  -1.8757  -1.3524
     0.2739   0.7997   9.7873  11.1422  11.1529  11.5333  11.5833  11.9541
    12.4748  13.4041  13.5808  13.7963  14.2753  14.4081  15.0299  15.1613
    15.7735  16.5510  16.9662  17.1469  17.3488  17.6467  17.6985  18.1016

          k =-0.2467 0.5774 0.0000 (  3012 PWs)   bands (ev):

   -13.8543 -13.7861 -12.9655 -12.9060 -10.1875 -10.1462  -1.8065  -1.2843
     0.2216   0.7429   9.7229  11.1292  11.2932  11.5757  11.7576  12.0238
    12.5338  13.4744  13.6564  13.8393  14.3402  14.4481  15.0828  15.1938
    15.7675  16.6250  16.9660  17.0146  17.3199  17.4828  17.6038  18.1029

          k =-0.2533 0.5774 0.0000 (  3012 PWs)   bands (ev):

   -13.8040 -13.7361 -12.9397 -12.8802 -10.2989 -10.2571  -1.7355  -1.2144
     0.1661   0.6833   9.6625  11.1127  11.4238  11.6178  11.9319  12.0977
    12.5928  13.5464  13.7339  13.8863  14.4070  14.4850  15.1357  15.2298
    15.7678  16.7003  16.8507  16.9580  17.2747  17.2949  17.5923  17.8825

          k =-0.2600 0.5774 0.0000 (  3012 PWs)   bands (ev):

   -13.7523 -13.6847 -12.9167 -12.8571 -10.4064 -10.3640  -1.6626  -1.1428
     0.1075   0.6210   9.6064  11.0952  11.5427  11.6594  12.1025  12.1761
    12.6512  13.6199  13.8132  13.9378  14.4757  14.5187  15.1875  15.2689
    15.7754  16.6758  16.7766  16.9196  17.0969  17.2744  17.5551  17.7090

          k =-0.2667 0.5774 0.0000 (  3008 PWs)   bands (ev):

   -13.6993 -13.6321 -12.8972 -12.8375 -10.5092 -10.4663  -1.5879  -1.0693
     0.0457   0.5559   9.5549  11.0779  11.6487  11.7005  12.2583  12.2670
    12.7087  13.6951  13.8944  13.9942  14.5462  14.5489  15.2367  15.3107
    15.7907  16.5006  16.7834  16.8529  17.0174  17.2593  17.3891  17.6758

          k =-0.2733 0.5774 0.0000 (  3008 PWs)   bands (ev):

   -13.6449 -13.5781 -12.8821 -12.8223 -10.6062 -10.5630  -1.5114  -0.9941
    -0.0194   0.4881   9.5081  11.0614  11.7408  11.7414  12.3429  12.4232
    12.7649  13.7718  13.9771  14.0559  14.5760  14.6186  15.2806  15.3549
    15.8144  16.3316  16.5908  16.9279  16.9945  17.1831  17.2514  17.6889

          k =-0.2800 0.5774 0.0000 (  3002 PWs)   bands (ev):

   -13.5892 -13.5229 -12.8724 -12.8124 -10.6966 -10.6530  -1.4331  -0.9171
    -0.0877   0.4175   9.4661  11.0463  11.7801  11.8211  12.4277  12.5689
    12.8193  13.8501  14.0612  14.1234  14.6002  14.6930  15.3146  15.4013
    15.8465  16.1743  16.3907  16.9780  16.9792  16.9981  17.2541  17.7026

          k =-0.2867 0.5774 0.0000 (  3006 PWs)   bands (ev):

   -13.5322 -13.4663 -12.8692 -12.8089 -10.7791 -10.7352  -1.3530  -0.8384
    -0.1592   0.3443   9.4292  11.0327  11.8183  11.8885  12.5097  12.7016
    12.8712  13.9298  14.1463  14.1975  14.6225  14.7693  15.3312  15.4491
    15.8869  16.0352  16.1923  16.7814  16.9608  17.0576  17.2734  17.7020

          k =-0.2933 0.5774 0.0000 (  3006 PWs)   bands (ev):

   -13.4739 -13.4084 -12.8733 -12.8128 -10.8527 -10.8086  -1.2712  -0.7579
    -0.2338   0.2684   9.3972  11.0210  11.8552  11.9445  12.5859  12.8189
    12.9199  14.0111  14.2318  14.2785  14.6439  14.8477  15.3196  15.4968
    15.9216  15.9354  15.9998  16.5991  16.9334  17.1001  17.3161  17.6710

          k =-0.3000 0.5774 0.0000 (  3004 PWs)   bands (ev):

   -13.4143 -13.3492 -12.8860 -12.8252 -10.9162 -10.8719  -1.1875  -0.6756
    -0.3115   0.1898   9.3703  11.0112  11.8906  11.9896  12.6535  12.9186
    12.9649  14.0939  14.3170  14.3668  14.6655  14.9281  15.2711  15.5368
    15.8217  15.8346  15.9915  16.4398  16.8898  17.1267  17.3809  17.6028

          k =-0.3067 0.5774 0.0000 (  3007 PWs)   bands (ev):

   -13.3534 -13.2887 -12.9081 -12.8469 -10.9688 -10.9243  -1.1021  -0.5917
    -0.3922   0.1088   9.3484  11.0034  11.9244  12.0238  12.7100  12.9989
    13.0055  14.1781  14.4003  14.4621  14.6886  15.0106  15.1880  15.5213
    15.7066  15.7601  16.0546  16.3164  16.8214  17.1454  17.4600  17.4980

          k =-0.3133 0.5774 0.0000 (  3011 PWs)   bands (ev):

   -13.2912 -13.2270 -12.9402 -12.8786 -11.0097 -10.9651  -1.0150  -0.5060
    -0.4759   0.0252   9.3315  10.9976  11.9563  12.0468  12.7540  13.0408
    13.0584  14.2638  14.4788  14.5634  14.7147  15.0832  15.0953  15.3882
    15.6755  15.7161  16.1243  16.2397  16.7238  17.1622  17.4168  17.4169

          k =-0.3200 0.5774 0.0000 (  3011 PWs)   bands (ev):

   -13.2276 -13.1639 -12.9826 -12.9205 -11.0386 -10.9940  -0.9261  -0.5624
    -0.4187  -0.0608   9.3195  10.9938  11.9863  12.0578  12.7848  13.0704
    13.0966  14.3511  14.5450  14.6686  14.7448  14.9723  15.1822  15.2244
    15.5733  15.7624  16.1998  16.2056  16.6030  17.1803  17.3319  17.3702

          k =-0.3267 0.5774 0.0000 (  3017 PWs)   bands (ev):

   -13.1628 -13.0995 -13.0351 -12.9726 -11.0556 -11.0110  -0.8354  -0.6518
    -0.3296  -0.1490   9.3124  10.9916  12.0141  12.0556  12.8023  13.0938
    13.1135  14.4398  14.5767  14.7718  14.7801  14.8802  15.0659  15.2714
    15.4641  15.8073  16.1967  16.2808  16.4754  17.2012  17.2658  17.3488

          k =-0.3333 0.5774 0.0000 (  3027 PWs)   bands (ev):

   -13.0972 -13.0967 -13.0344 -13.0338 -11.0611 -11.0166  -0.7437  -0.7430
    -0.2396  -0.2388   9.3101  10.9910  12.0390  12.0396  12.8078  13.1099
    13.1106  14.5298  14.5300  14.8209  14.8214  14.8479  14.9686  15.3627
    15.3628  15.8289  16.1962  16.3665  16.3667  17.2251  17.2257  17.3433

     Writing output data file graphene.save

     init_run     :      0.79s CPU      0.82s WALL (       1 calls)
     electrons    :    271.13s CPU    272.89s WALL (       1 calls)

     Called by init_run:
     wfcinit      :      0.00s CPU      0.00s WALL (       1 calls)
     potinit      :      0.21s CPU      0.23s WALL (       1 calls)

     Called by electrons:
     c_bands      :    271.13s CPU    272.89s WALL (       1 calls)
     v_of_rho     :      0.18s CPU      0.19s WALL (       1 calls)
     v_h          :      0.01s CPU      0.01s WALL (       1 calls)
     v_xc         :      0.16s CPU      0.17s WALL (       1 calls)
     newd         :      0.23s CPU      0.23s WALL (       1 calls)

     Called by c_bands:
     init_us_2    :      0.12s CPU      0.16s WALL (     151 calls)
     cegterg      :    257.60s CPU    259.18s WALL (     183 calls)

     Called by sum_band:

     Called by *egterg:
     h_psi        :     89.33s CPU     89.59s WALL (    3144 calls)
     s_psi        :     12.98s CPU     13.01s WALL (    3144 calls)
     g_psi        :      0.79s CPU      0.80s WALL (    2810 calls)
     cdiaghg      :     16.41s CPU     16.45s WALL (    2961 calls)
     cegterg:over :     60.89s CPU     60.97s WALL (    2810 calls)
     cegterg:upda :     41.66s CPU     41.73s WALL (    2810 calls)
     cegterg:last :     39.14s CPU     39.18s WALL (     568 calls)

     Called by h_psi:
     h_psi:vloc   :     61.89s CPU     62.05s WALL (    3144 calls)
     h_psi:vnl    :     26.86s CPU     26.95s WALL (    3144 calls)
     add_vuspsi   :     12.96s CPU     12.98s WALL (    3144 calls)

     General routines
     calbec       :     13.88s CPU     13.95s WALL (    3144 calls)
     fft          :      0.12s CPU      0.12s WALL (      12 calls)
     ffts         :      0.00s CPU      0.00s WALL (       1 calls)
     fftw         :     43.39s CPU     43.79s WALL (  110398 calls)
     interpolate  :      0.01s CPU      0.01s WALL (       1 calls)

     Parallel routines
     fft_scatter  :      7.79s CPU      7.86s WALL (  110411 calls)

     PWSCF        :  4m33.04s CPU     4m35.12s WALL


   This run was terminated on:  17: 8:48   4Apr2020            

=------------------------------------------------------------------------------=
   JOB DONE.
=------------------------------------------------------------------------------=
