
     Program PWSCF v.5.1 starts on  4Apr2020 at 13:25:40 

     This program is part of the open-source Quantum ESPRESSO suite
     for quantum simulation of materials; please cite
         "P. Giannozzi et al., J. Phys.:Condens. Matter 21 395502 (2009);
          URL http://www.quantum-espresso.org", 
     in publications or presentations arising from this work. More details at
     http://www.quantum-espresso.org/quote

     Parallel version (MPI), running on     1 processors
     Waiting for input...
     Reading input from standard input

     Current dimensions of program PWSCF are:
     Max number of different atomic species (ntypx) = 10
     Max number of k-points (npk) =  40000
     Max angular momentum in pseudopotentials (lmaxx) =  3

     IMPORTANT: XC functional enforced from input :
     Exchange-correlation      = PBE ( 1  4  3  4 0)
     Any further DFT definition will be discarded
     Please, verify this is what you really want

               file C.pbe-rrkjus.UPF: wavefunction(s)  2S 2P renormalized

     Subspace diagonalization in iterative solution of the eigenvalue problem:
     a serial algorithm will be used


     G-vector sticks info
     --------------------
     sticks:   dense  smooth     PW     G-vecs:    dense   smooth      PW
     Sum         595     241     85                96043    24369    4587


     Title: 
     graphene                                                                   


     bravais-lattice index     =           12
     lattice parameter (alat)  =       4.6627  a.u.
     unit-cell volume          =     711.6007 (a.u.)^3
     number of atoms/cell      =            4
     number of atomic types    =            1
     number of electrons       =        16.00
     number of Kohn-Sham states=           12
     kinetic-energy cutoff     =      40.0000  Ry
     charge density cutoff     =     400.0000  Ry
     convergence threshold     =      1.0E-10
     mixing beta               =       0.3000
     number of iterations used =            8  plain     mixing
     Exchange-correlation      = PBE ( 1  4  3  4 0)

     celldm(1)=   4.662710  celldm(2)=   1.000000  celldm(3)=   8.105698
     celldm(4)=  -0.500000  celldm(5)=   0.000000  celldm(6)=   0.000000

     crystal axes: (cart. coord. in units of alat)
               a(1) = (   1.000000   0.000000   0.000000 )  
               a(2) = (  -0.500000   0.866025   0.000000 )  
               a(3) = (   0.000000   0.000000   8.105698 )  

     reciprocal axes: (cart. coord. in units 2 pi/alat)
               b(1) = (  1.000000  0.577350 -0.000000 )  
               b(2) = (  0.000000  1.154701  0.000000 )  
               b(3) = (  0.000000 -0.000000  0.123370 )  


     PseudoPot. # 1 for C  read from file:
     ../pseudo/C.pbe-rrkjus.UPF
     MD5 check sum: 00fb224312de0c5b6853bd333518df6f
     Pseudo is Ultrasoft, Zval =  4.0
     Generated by new atomic code, or converted to UPF format
     Using radial grid of  627 points,  4 beta functions with: 
                l(1) =   0
                l(2) =   0
                l(3) =   1
                l(4) =   1
     Q(r) pseudized with 0 coefficients 


     atomic species   valence    mass     pseudopotential
        C              4.00    12.01100     C ( 1.00)

      2 Sym. Ops. (no inversion) found
          (note:  6 additional sym.ops. were found but ignored
           their fractional translations are incommensurate with FFT grid)

                                    s                        frac. trans.

      isym =  1     identity                                     

 cryst.   s( 1) = (     1          0          0      )
                  (     0          1          0      )
                  (     0          0          1      )

 cart.    s( 1) = (  1.0000000  0.0000000  0.0000000 )
                  (  0.0000000  1.0000000  0.0000000 )
                  (  0.0000000  0.0000000  1.0000000 )


      isym =  2     inv. 180 deg rotation - cart. axis [1,0,0]   

 cryst.   s( 2) = (    -1          0          0      )
                  (     1          1          0      )
                  (     0          0          1      )

 cart.    s( 2) = ( -1.0000000  0.0000000  0.0000000 )
                  (  0.0000000  1.0000000  0.0000000 )
                  (  0.0000000  0.0000000  1.0000000 )


     point group C_s (m)    
     there are  2 classes
     the character table:

       E     s    
A'     1.00  1.00
A''    1.00 -1.00

     the symmetry operations in each class:
     E        1
     s        2

   Cartesian axes

     site n.     atom                  positions (alat units)
         1           C   tau(   1) = (   0.0000000   0.0000000   2.0264246  )
         2           C   tau(   2) = (   0.0000000   0.5773284   2.0264246  )
         3           C   tau(   3) = (   0.0000000   0.0000000   3.4530275  )
         4           C   tau(   4) = (   0.0000000   0.5773284   3.4530275  )

   Crystallographic axes

     site n.     atom                  positions (cryst. coord.)
         1           C   tau(   1) = (  0.0000000  0.0000000  0.2500000  )
         2           C   tau(   2) = (  0.3333207  0.6666414  0.2500000  )
         3           C   tau(   3) = (  0.0000000  0.0000000  0.4260000  )
         4           C   tau(   4) = (  0.3333207  0.6666414  0.4260000  )

     number of k points=    43  Marzari-Vanderbilt smearing, width (Ry)=  0.0001
                       cart. coord. in units 2pi/alat
        k(    1) = (   0.0000000   0.0000000   0.0000000), wk =   0.0138889
        k(    2) = (   0.0000000   0.0962250   0.0000000), wk =   0.0277778
        k(    3) = (   0.0000000   0.1924501   0.0000000), wk =   0.0277778
        k(    4) = (   0.0000000   0.2886751   0.0000000), wk =   0.0277778
        k(    5) = (   0.0000000   0.3849002   0.0000000), wk =   0.0277778
        k(    6) = (   0.0000000   0.4811252   0.0000000), wk =   0.0277778
        k(    7) = (   0.0000000  -0.5773503   0.0000000), wk =   0.0138889
        k(    8) = (   0.0833333   0.1443376   0.0000000), wk =   0.0555556
        k(    9) = (   0.0833333   0.2405626   0.0000000), wk =   0.0555556
        k(   10) = (   0.0833333   0.3367877   0.0000000), wk =   0.0555556
        k(   11) = (   0.0833333   0.4330127   0.0000000), wk =   0.0555556
        k(   12) = (   0.0833333   0.5292377   0.0000000), wk =   0.0555556
        k(   13) = (   0.1666667   0.2886751   0.0000000), wk =   0.0555556
        k(   14) = (   0.1666667   0.3849002   0.0000000), wk =   0.0555556
        k(   15) = (   0.1666667   0.4811252   0.0000000), wk =   0.0555556
        k(   16) = (   0.1666667   0.5773503   0.0000000), wk =   0.0277778
        k(   17) = (   0.2500000   0.4330127   0.0000000), wk =   0.0555556
        k(   18) = (   0.2500000   0.5292377   0.0000000), wk =   0.0555556
        k(   19) = (   0.3333333   0.5773503   0.0000000), wk =   0.0277778
        k(   20) = (  -0.0833333   0.0481125   0.0000000), wk =   0.0555556
        k(   21) = (  -0.1666667   0.0962250   0.0000000), wk =   0.0555556
        k(   22) = (  -0.2500000   0.1443376   0.0000000), wk =   0.0555556
        k(   23) = (  -0.3333333   0.1924501   0.0000000), wk =   0.0555556
        k(   24) = (  -0.4166667   0.2405626   0.0000000), wk =   0.0555556
        k(   25) = (   0.5000000  -0.2886751   0.0000000), wk =   0.0277778
        k(   26) = (   0.1666667  -0.0000000   0.0000000), wk =   0.0277778
        k(   27) = (  -0.1666667   0.1924501   0.0000000), wk =   0.0555556
        k(   28) = (   0.2500000   0.0481125   0.0000000), wk =   0.0555556
        k(   29) = (  -0.2500000   0.2405626   0.0000000), wk =   0.0555556
        k(   30) = (   0.3333333   0.0962250   0.0000000), wk =   0.0555556
        k(   31) = (  -0.3333333   0.2886751   0.0000000), wk =   0.0555556
        k(   32) = (   0.4166667   0.1443376   0.0000000), wk =   0.0555556
        k(   33) = (  -0.4166667   0.3367877   0.0000000), wk =   0.0555556
        k(   34) = (   0.5000000   0.1924501   0.0000000), wk =   0.0555556
        k(   35) = (   0.3333333  -0.0000000   0.0000000), wk =   0.0277778
        k(   36) = (  -0.2500000   0.3367877   0.0000000), wk =   0.0555556
        k(   37) = (   0.4166667   0.0481125   0.0000000), wk =   0.0555556
        k(   38) = (  -0.3333333   0.3849002   0.0000000), wk =   0.0555556
        k(   39) = (   0.5000000   0.0962250   0.0000000), wk =   0.0555556
        k(   40) = (  -0.4166667   0.4330127   0.0000000), wk =   0.0555556
        k(   41) = (   0.5000000   0.0000000   0.0000000), wk =   0.0277778
        k(   42) = (  -0.3333333   0.4811252   0.0000000), wk =   0.0555556
        k(   43) = (   0.5833333   0.0481125   0.0000000), wk =   0.0555556

                       cryst. coord.
        k(    1) = (   0.0000000   0.0000000   0.0000000), wk =   0.0138889
        k(    2) = (   0.0000000   0.0833333   0.0000000), wk =   0.0277778
        k(    3) = (   0.0000000   0.1666667   0.0000000), wk =   0.0277778
        k(    4) = (   0.0000000   0.2500000   0.0000000), wk =   0.0277778
        k(    5) = (   0.0000000   0.3333333   0.0000000), wk =   0.0277778
        k(    6) = (   0.0000000   0.4166667   0.0000000), wk =   0.0277778
        k(    7) = (   0.0000000  -0.5000000   0.0000000), wk =   0.0138889
        k(    8) = (   0.0833333   0.0833333   0.0000000), wk =   0.0555556
        k(    9) = (   0.0833333   0.1666667   0.0000000), wk =   0.0555556
        k(   10) = (   0.0833333   0.2500000   0.0000000), wk =   0.0555556
        k(   11) = (   0.0833333   0.3333333   0.0000000), wk =   0.0555556
        k(   12) = (   0.0833333   0.4166667   0.0000000), wk =   0.0555556
        k(   13) = (   0.1666667   0.1666667   0.0000000), wk =   0.0555556
        k(   14) = (   0.1666667   0.2500000   0.0000000), wk =   0.0555556
        k(   15) = (   0.1666667   0.3333333   0.0000000), wk =   0.0555556
        k(   16) = (   0.1666667   0.4166667   0.0000000), wk =   0.0277778
        k(   17) = (   0.2500000   0.2500000   0.0000000), wk =   0.0555556
        k(   18) = (   0.2500000   0.3333333   0.0000000), wk =   0.0555556
        k(   19) = (   0.3333333   0.3333333   0.0000000), wk =   0.0277778
        k(   20) = (  -0.0833333   0.0833333   0.0000000), wk =   0.0555556
        k(   21) = (  -0.1666667   0.1666667   0.0000000), wk =   0.0555556
        k(   22) = (  -0.2500000   0.2500000   0.0000000), wk =   0.0555556
        k(   23) = (  -0.3333333   0.3333333   0.0000000), wk =   0.0555556
        k(   24) = (  -0.4166667   0.4166667   0.0000000), wk =   0.0555556
        k(   25) = (   0.5000000  -0.5000000   0.0000000), wk =   0.0277778
        k(   26) = (   0.1666667  -0.0833333   0.0000000), wk =   0.0277778
        k(   27) = (  -0.1666667   0.2500000   0.0000000), wk =   0.0555556
        k(   28) = (   0.2500000  -0.0833333   0.0000000), wk =   0.0555556
        k(   29) = (  -0.2500000   0.3333333   0.0000000), wk =   0.0555556
        k(   30) = (   0.3333333  -0.0833333   0.0000000), wk =   0.0555556
        k(   31) = (  -0.3333333   0.4166667   0.0000000), wk =   0.0555556
        k(   32) = (   0.4166667  -0.0833333   0.0000000), wk =   0.0555556
        k(   33) = (  -0.4166667   0.5000000   0.0000000), wk =   0.0555556
        k(   34) = (   0.5000000  -0.0833333   0.0000000), wk =   0.0555556
        k(   35) = (   0.3333333  -0.1666667   0.0000000), wk =   0.0277778
        k(   36) = (  -0.2500000   0.4166667   0.0000000), wk =   0.0555556
        k(   37) = (   0.4166667  -0.1666667   0.0000000), wk =   0.0555556
        k(   38) = (  -0.3333333   0.5000000   0.0000000), wk =   0.0555556
        k(   39) = (   0.5000000  -0.1666667   0.0000000), wk =   0.0555556
        k(   40) = (  -0.4166667   0.5833333   0.0000000), wk =   0.0555556
        k(   41) = (   0.5000000  -0.2500000   0.0000000), wk =   0.0277778
        k(   42) = (  -0.3333333   0.5833333   0.0000000), wk =   0.0555556
        k(   43) = (   0.5833333  -0.2500000   0.0000000), wk =   0.0555556

     Dense  grid:    96043 G-vectors     FFT dimensions: (  30,  30, 243)

     Smooth grid:    24369 G-vectors     FFT dimensions: (  20,  20, 160)

     Largest allocated arrays     est. size (Mb)     dimensions
        Kohn-Sham Wavefunctions         0.56 Mb     (    3054,   12)
        NL pseudopotentials             1.49 Mb     (    3054,   32)
        Each V/rho on FFT grid          3.34 Mb     (  218700)
        Each G-vector array             0.73 Mb     (   96043)
        G-vector shells                 0.04 Mb     (    4763)
     Largest temporary arrays     est. size (Mb)     dimensions
        Auxiliary wavefunctions         2.24 Mb     (    3054,   48)
        Each subspace H/S matrix        0.04 Mb     (      48,   48)
        Each <psi_i|beta_j> matrix      0.01 Mb     (      32,   12)
        Arrays for rho mixing          26.70 Mb     (  218700,    8)

     Initial potential from superposition of free atoms

     starting charge   15.99979, renormalised to   16.00000

     negative rho (up, down):  1.103E-05 0.000E+00
     Starting wfc are   16 randomized atomic wfcs

     total cpu time spent up to now is        1.8 secs

     per-process dynamical memory:    67.0 Mb

     Self-consistent Calculation

     iteration #  1     ecut=    40.00 Ry     beta=0.30
     Davidson diagonalization with overlap
     ethr =  1.00E-02,  avg # of iterations =  2.8

     negative rho (up, down):  6.722E-06 0.000E+00

     total cpu time spent up to now is        5.2 secs

          k = 0.0000 0.0000 0.0000     band energies (ev):

   -23.8530 -23.7805 -11.2210 -10.6348  -8.1635  -8.1616  -8.1557  -8.1538
     3.6882   3.6904   3.7116   3.7137

     occupation numbers 
     1.0000   1.0000   1.0000   1.0000   1.0000   1.0000   1.0000   1.0000
     0.0000   0.0000   0.0000   0.0000

          k = 0.0000 0.0962 0.0000     band energies (ev):

   -23.6941 -23.6224 -11.0293 -10.4475  -8.7576  -8.7475  -8.4726  -8.4643
     3.8025   3.8344   4.3452   4.3680

     occupation numbers 
     1.0000   1.0000   1.0000   1.0000   1.0000   1.0000   1.0000   1.0000
     0.0000   0.0000   0.0000   0.0000

          k = 0.0000 0.1925 0.0000     band energies (ev):

   -23.2194 -23.1502 -10.4606 -10.2733 -10.2572  -9.8917  -9.2107  -9.2013
     3.9301   3.9404   5.1151   5.2824

     occupation numbers 
     1.0000   1.0000   1.0000   1.0000   1.0000   1.0000   1.0000   1.0000
     0.0000   0.0000   0.0000   0.0000

          k = 0.0000 0.2887 0.0000     band energies (ev):

   -22.4357 -22.3700 -12.2434 -12.2200 -10.0425 -10.0319  -9.5355  -8.9898
     3.1625   3.4165   3.6683   3.7601

     occupation numbers 
     1.0000   1.0000   1.0000   1.0000   1.0000   1.0000   1.0000   1.0000
     0.0000   0.0000   0.0000   0.0000

          k = 0.0000 0.3849 0.0000     band energies (ev):

   -21.3552 -21.2944 -14.3329 -14.3018 -10.7427 -10.7313  -8.3064  -7.7970
     0.9815   1.3253   3.4318   3.5285

     occupation numbers 
     1.0000   1.0000   1.0000   1.0000   1.0000   1.0000   1.0000   1.0000
     0.0000   0.0000   0.0000   0.0000

          k = 0.0000 0.4811 0.0000     band energies (ev):

   -20.0119 -19.9567 -16.3355 -16.2966 -11.1967 -11.1850  -6.9402  -6.4859
    -1.0438  -0.6063   3.2452   3.3538

     occupation numbers 
     1.0000   1.0000   1.0000   1.0000   1.0000   1.0000   1.0000   1.0000
     0.0000   0.0000   0.0000   0.0000

          k = 0.0000-0.5774 0.0000     band energies (ev):

   -18.8185 -18.7667 -17.7561 -17.7137 -11.3530 -11.3412  -6.1441  -5.7391
    -2.0744  -1.5735   3.1788   3.2775

     occupation numbers 
     1.0000   1.0000   1.0000   1.0000   1.0000   1.0000   1.0000   1.0000
     0.0000   0.0000   0.0000   0.0000

          k = 0.0833 0.1443 0.0000     band energies (ev):

   -23.3778 -23.3075 -10.6495 -10.0759  -9.7176  -9.7040  -9.0929  -9.0829
     3.1261   4.0031   4.1626   4.2257

     occupation numbers 
     1.0000   1.0000   1.0000   1.0000   1.0000   1.0000   1.0000   1.0000
     0.0000   0.0000   0.0000   0.0000

          k = 0.0833 0.2406 0.0000     band energies (ev):

   -22.7479 -22.6810 -11.3182 -11.2986 -10.0216 -10.0092  -9.9005  -9.3455
     3.9435   4.1547   4.5077   4.5270

     occupation numbers 
     1.0000   1.0000   1.0000   1.0000   1.0000   1.0000   1.0000   1.0000
     0.0000   0.0000   0.0000   0.0000

          k = 0.0833 0.3368 0.0000     band energies (ev):

   -21.8157 -21.7530 -13.2727 -13.2458 -10.8629 -10.8492  -8.8170  -8.2910
     1.9262   2.2126   4.2038   4.3170

     occupation numbers 
     1.0000   1.0000   1.0000   1.0000   1.0000   1.0000   1.0000   1.0000
     0.0000   0.0000   0.0000   0.0000

          k = 0.0833 0.4330 0.0000     band energies (ev):

   -20.6005 -20.5431 -15.2895 -15.2550 -11.4715 -11.4570  -7.4848  -7.0033
    -0.1648   0.2081   3.9981   4.1007

     occupation numbers 
     1.0000   1.0000   1.0000   1.0000   1.0000   1.0000   1.0000   1.0000
     0.0000   0.0000   0.0000   0.0000

          k = 0.0833 0.5292 0.0000     band energies (ev):

   -19.1844 -19.1324 -17.1371 -17.0960 -11.7878 -11.7730  -6.2375  -5.8175
    -1.8348  -1.3752   3.8577   3.9617

     occupation numbers 
     1.0000   1.0000   1.0000   1.0000   1.0000   1.0000   1.0000   1.0000
     0.0000   0.0000   0.0000   0.0000

          k = 0.1667 0.2887 0.0000     band energies (ev):

   -21.9697 -21.9067 -12.5900 -12.5663 -11.2739 -11.2568  -8.9898  -8.4580
     2.3175   2.5690   6.7312   6.9489

     occupation numbers 
     1.0000   1.0000   1.0000   1.0000   1.0000   1.0000   1.0000   1.0000
     0.0000   0.0000   0.0000   0.0000

          k = 0.1667 0.3849 0.0000     band energies (ev):

   -20.9014 -20.8430 -14.2251 -14.1951 -12.2724 -12.2525  -7.7764  -7.2808
     0.4654   0.7699   5.7797   6.0625

     occupation numbers 
     1.0000   1.0000   1.0000   1.0000   1.0000   1.0000   1.0000   1.0000
     0.0000   0.0000   0.0000   0.0000

          k = 0.1667 0.4811 0.0000     band energies (ev):

   -19.5794 -19.5265 -16.0353 -15.9982 -12.8285 -12.8074  -6.4045  -5.9604
    -1.3504  -0.9771   5.6582   5.7922

     occupation numbers 
     1.0000   1.0000   1.0000   1.0000   1.0000   1.0000   1.0000   1.0000
     0.0000   0.0000   0.0000   0.0000

          k = 0.1667 0.5774 0.0000     band energies (ev):

   -18.4145 -18.3651 -17.3845 -17.3432 -13.0079 -12.9864  -5.5592  -5.1617
    -2.3558  -1.9282   5.5568   5.6943

     occupation numbers 
     1.0000   1.0000   1.0000   1.0000   1.0000   1.0000   1.0000   1.0000
     0.0000   0.0000   0.0000   0.0000

          k = 0.2500 0.4330 0.0000     band energies (ev):

   -19.7200 -19.6669 -15.2301 -15.1961 -13.6454 -13.6203  -6.4801  -6.0260
    -1.1022  -0.7755   8.1013   8.3138

     occupation numbers 
     1.0000   1.0000   1.0000   1.0000   1.0000   1.0000   1.0000   1.0000
     0.0000   0.0000   0.0000   0.0000

          k = 0.2500 0.5292 0.0000     band energies (ev):

   -18.3631 -18.3151 -16.5724 -16.5331 -14.3224 -14.2950  -5.1504  -4.7471
    -2.5635  -2.1982   7.7957   8.0426

     occupation numbers 
     1.0000   1.0000   1.0000   1.0000   1.0000   1.0000   1.0000   1.0000
     0.0000   0.0000   0.0000   0.0000

          k = 0.3333 0.5774 0.0000     band energies (ev):

   -17.2092 -17.2084 -17.1662 -17.1655 -15.1342 -15.1045  -3.8378  -3.8370
    -3.4648  -3.4640   9.6736   9.7436

     occupation numbers 
     1.0000   1.0000   1.0000   1.0000   1.0000   1.0000   1.0000   1.0000
     0.0000   0.0000   0.0000   0.0000

          k =-0.0833 0.0481 0.0000     band energies (ev):

   -23.6941 -23.6224 -11.0295 -10.4475  -8.7563  -8.7462  -8.4739  -8.4656
     3.7992   3.8300   4.3473   4.3694

     occupation numbers 
     1.0000   1.0000   1.0000   1.0000   1.0000   1.0000   1.0000   1.0000
     0.0000   0.0000   0.0000   0.0000

          k =-0.1667 0.0962 0.0000     band energies (ev):

   -23.2194 -23.1502 -10.4607 -10.2723 -10.2563  -9.8918  -9.2118  -9.2024
     3.9286   3.9431   5.1128   5.2927

     occupation numbers 
     1.0000   1.0000   1.0000   1.0000   1.0000   1.0000   1.0000   1.0000
     0.0000   0.0000   0.0000   0.0000

          k =-0.2500 0.1443 0.0000     band energies (ev):

   -22.4356 -22.3700 -12.2428 -12.2193 -10.0434 -10.0328  -9.5355  -8.9898
     3.1631   3.4169   3.6556   3.7611

     occupation numbers 
     1.0000   1.0000   1.0000   1.0000   1.0000   1.0000   1.0000   1.0000
     0.0000   0.0000   0.0000   0.0000

          k =-0.3333 0.1925 0.0000     band energies (ev):

   -21.3551 -21.2944 -14.3323 -14.3012 -10.7434 -10.7321  -8.3065  -7.7972
     0.9824   1.3258   3.4325   3.5276

     occupation numbers 
     1.0000   1.0000   1.0000   1.0000   1.0000   1.0000   1.0000   1.0000
     0.0000   0.0000   0.0000   0.0000

          k =-0.4167 0.2406 0.0000     band energies (ev):

   -20.0120 -19.9568 -16.3350 -16.2961 -11.1974 -11.1857  -6.9406  -6.4864
    -1.0430  -0.6055   3.2443   3.3554

     occupation numbers 
     1.0000   1.0000   1.0000   1.0000   1.0000   1.0000   1.0000   1.0000
     0.0000   0.0000   0.0000   0.0000

          k = 0.5000-0.2887 0.0000     band energies (ev):

   -18.8190 -18.7672 -17.7550 -17.7128 -11.3537 -11.3419  -6.1447  -5.7397
    -2.0733  -1.5723   3.1788   3.2773

     occupation numbers 
     1.0000   1.0000   1.0000   1.0000   1.0000   1.0000   1.0000   1.0000
     0.0000   0.0000   0.0000   0.0000

          k = 0.1667-0.0000 0.0000     band energies (ev):

   -23.3774 -23.3073 -10.6491 -10.0760  -9.7165  -9.7028  -9.0941  -9.0841
     4.1508   4.1783   5.5276   5.6960

     occupation numbers 
     1.0000   1.0000   1.0000   1.0000   1.0000   1.0000   1.0000   1.0000
     0.0000   0.0000   0.0000   0.0000

          k =-0.1667 0.1925 0.0000     band energies (ev):

   -22.7479 -22.6810 -11.3177 -11.2981 -10.0222 -10.0098  -9.9007  -9.3455
     3.9434   4.1552   4.4958   4.5164

     occupation numbers 
     1.0000   1.0000   1.0000   1.0000   1.0000   1.0000   1.0000   1.0000
     0.0000   0.0000   0.0000   0.0000

          k = 0.2500 0.0481 0.0000     band energies (ev):

   -22.7479 -22.6809 -11.3172 -11.2975 -10.0228 -10.0104  -9.9007  -9.3455
     3.9447   4.1555   4.5013   4.5075

     occupation numbers 
     1.0000   1.0000   1.0000   1.0000   1.0000   1.0000   1.0000   1.0000
     0.0000   0.0000   0.0000   0.0000

          k =-0.2500 0.2406 0.0000     band energies (ev):

   -21.8157 -21.7530 -13.2722 -13.2452 -10.8636 -10.8499  -8.8171  -8.2911
     1.9263   2.2129   4.2084   4.3160

     occupation numbers 
     1.0000   1.0000   1.0000   1.0000   1.0000   1.0000   1.0000   1.0000
     0.0000   0.0000   0.0000   0.0000

          k = 0.3333 0.0962 0.0000     band energies (ev):

   -21.8156 -21.7529 -13.2719 -13.2450 -10.8637 -10.8501  -8.8172  -8.2911
     1.9266   2.2130   4.2055   4.3180

     occupation numbers 
     1.0000   1.0000   1.0000   1.0000   1.0000   1.0000   1.0000   1.0000
     0.0000   0.0000   0.0000   0.0000

          k =-0.3333 0.2887 0.0000     band energies (ev):

   -20.6005 -20.5431 -15.2890 -15.2545 -11.4721 -11.4577  -7.4850  -7.0036
    -0.1645   0.2086   3.9974   4.1007

     occupation numbers 
     1.0000   1.0000   1.0000   1.0000   1.0000   1.0000   1.0000   1.0000
     0.0000   0.0000   0.0000   0.0000

          k = 0.4167 0.1443 0.0000     band energies (ev):

   -20.6005 -20.5431 -15.2889 -15.2544 -11.4722 -11.4578  -7.4851  -7.0036
    -0.1641   0.2087   3.9981   4.0986

     occupation numbers 
     1.0000   1.0000   1.0000   1.0000   1.0000   1.0000   1.0000   1.0000
     0.0000   0.0000   0.0000   0.0000

          k =-0.4167 0.3368 0.0000     band energies (ev):

   -19.1845 -19.1326 -17.1365 -17.0954 -11.7885 -11.7737  -6.2380  -5.8181
    -1.8339  -1.3743   3.8565   3.9611

     occupation numbers 
     1.0000   1.0000   1.0000   1.0000   1.0000   1.0000   1.0000   1.0000
     0.0000   0.0000   0.0000   0.0000

          k = 0.5000 0.1925 0.0000     band energies (ev):

   -19.1846 -19.1326 -17.1364 -17.0954 -11.7885 -11.7737  -6.2380  -5.8181
    -1.8338  -1.3742   3.8563   3.9608

     occupation numbers 
     1.0000   1.0000   1.0000   1.0000   1.0000   1.0000   1.0000   1.0000
     0.0000   0.0000   0.0000   0.0000

          k = 0.3333-0.0000 0.0000     band energies (ev):

   -21.9696 -21.9067 -12.5891 -12.5654 -11.2749 -11.2578  -8.9898  -8.4581
     2.3178   2.5693   6.8770   7.0022

     occupation numbers 
     1.0000   1.0000   1.0000   1.0000   1.0000   1.0000   1.0000   1.0000
     0.0000   0.0000   0.0000   0.0000

          k =-0.2500 0.3368 0.0000     band energies (ev):

   -20.9015 -20.8430 -14.2247 -14.1947 -12.2729 -12.2529  -7.7765  -7.2809
     0.4654   0.7700   5.7808   6.0597

     occupation numbers 
     1.0000   1.0000   1.0000   1.0000   1.0000   1.0000   1.0000   1.0000
     0.0000   0.0000   0.0000   0.0000

          k = 0.4167 0.0481 0.0000     band energies (ev):

   -20.9016 -20.8430 -14.2243 -14.1943 -12.2736 -12.2534  -7.7765  -7.2810
     0.4658   0.7703   5.7395   6.0627

     occupation numbers 
     1.0000   1.0000   1.0000   1.0000   1.0000   1.0000   1.0000   1.0000
     0.0000   0.0000   0.0000   0.0000

          k =-0.3333 0.3849 0.0000     band energies (ev):

   -19.5795 -19.5265 -16.0347 -15.9977 -12.8291 -12.8080  -6.4047  -5.9606
    -1.3499  -0.9765   5.6574   5.7925

     occupation numbers 
     1.0000   1.0000   1.0000   1.0000   1.0000   1.0000   1.0000   1.0000
     0.0000   0.0000   0.0000   0.0000

          k = 0.5000 0.0962 0.0000     band energies (ev):

   -19.5794 -19.5266 -16.0346 -15.9976 -12.8293 -12.8081  -6.4049  -5.9608
    -1.3495  -0.9763   5.6557   5.7920

     occupation numbers 
     1.0000   1.0000   1.0000   1.0000   1.0000   1.0000   1.0000   1.0000
     0.0000   0.0000   0.0000   0.0000

          k =-0.4167 0.4330 0.0000     band energies (ev):

   -18.4150 -18.3655 -17.3835 -17.3422 -13.0085 -12.9870  -5.5598  -5.1624
    -2.3549  -1.9273   5.5562   5.6939

     occupation numbers 
     1.0000   1.0000   1.0000   1.0000   1.0000   1.0000   1.0000   1.0000
     0.0000   0.0000   0.0000   0.0000

          k = 0.5000 0.0000 0.0000     band energies (ev):

   -19.7201 -19.6669 -15.2294 -15.1954 -13.6464 -13.6211  -6.4804  -6.0263
    -1.1017  -0.7750   8.1034   8.3162

     occupation numbers 
     1.0000   1.0000   1.0000   1.0000   1.0000   1.0000   1.0000   1.0000
     0.0000   0.0000   0.0000   0.0000

          k =-0.3333 0.4811 0.0000     band energies (ev):

   -18.3632 -18.3152 -16.5720 -16.5326 -14.3228 -14.2954  -5.1507  -4.7474
    -2.5631  -2.1976   7.7842   8.0363

     occupation numbers 
     1.0000   1.0000   1.0000   1.0000   1.0000   1.0000   1.0000   1.0000
     0.0000   0.0000   0.0000   0.0000

          k = 0.5833 0.0481 0.0000     band energies (ev):

   -18.3632 -18.3153 -16.5716 -16.5323 -14.3230 -14.2957  -5.1509  -4.7476
    -2.5627  -2.1973   7.7889   8.0404

     occupation numbers 
     1.0000   1.0000   1.0000   1.0000   1.0000   1.0000   1.0000   1.0000
     0.0000   0.0000   0.0000   0.0000

     the Fermi energy is    -3.6420 ev

!    total energy              =     -45.62219731 Ry
     Harris-Foulkes estimate   =     -45.75428632 Ry
     estimated scf accuracy    <       0.39575208 Ry

     The total energy is the sum of the following terms:

     one-electron contribution =    -522.19211813 Ry
     hartree contribution      =     260.98288735 Ry
     xc contribution           =     -13.65587479 Ry
     ewald contribution        =     225.00644935 Ry
     scf correction            =       4.23645892 Ry
     smearing contrib. (-TS)   =       0.00000000 Ry

     iteration #  2     ecut=    40.00 Ry     beta=0.30
     Davidson diagonalization with overlap
     ethr =  2.47E-03,  avg # of iterations =  1.8

     negative rho (up, down):  9.061E-05 0.000E+00

     total cpu time spent up to now is        7.4 secs

          k = 0.0000 0.0000 0.0000     band energies (ev):

   -22.0919 -22.0071  -9.9287  -9.2653  -6.0704  -6.0686  -6.0613  -6.0596
     5.5654   5.5676   5.5929   5.5939

     occupation numbers 
     1.0000   1.0000   1.0000   1.0000   1.0000   1.0000   1.0000   1.0000
     0.0000   0.0000   0.0000   0.0000

          k = 0.0000 0.0962 0.0000     band energies (ev):

   -21.9307 -21.8469  -9.7344  -9.0756  -6.6869  -6.6750  -6.3902  -6.3806
     2.9850   5.6678   5.6819   6.2370

     occupation numbers 
     1.0000   1.0000   1.0000   1.0000   1.0000   1.0000   1.0000   1.0000
     0.0000   0.0000   0.0000   0.0000

          k = 0.0000 0.1925 0.0000     band energies (ev):

   -21.4492 -21.3680  -9.1568  -8.5120  -8.2518  -8.2327  -7.1496  -7.1385
     3.6142   4.2265   5.6777   5.7046

     occupation numbers 
     1.0000   1.0000   1.0000   1.0000   1.0000   1.0000   1.0000   1.0000
     0.0000   0.0000   0.0000   0.0000

          k = 0.0000 0.2887 0.0000     band energies (ev):

   -20.6532 -20.5763 -10.2748 -10.2470  -8.2153  -8.0000  -7.9876  -7.5954
     4.7264   5.0226   5.3427   5.4996

     occupation numbers 
     1.0000   1.0000   1.0000   1.0000   1.0000   1.0000   1.0000   1.0000
     0.0000   0.0000   0.0000   0.0000

          k = 0.0000 0.3849 0.0000     band energies (ev):

   -19.5556 -19.4843 -12.4123 -12.3753  -8.7131  -8.6997  -6.9606  -6.3806
     2.4682   2.8700   5.1190   5.2372

     occupation numbers 
     1.0000   1.0000   1.0000   1.0000   1.0000   1.0000   1.0000   1.0000
     0.0000   0.0000   0.0000   0.0000

          k = 0.0000 0.4811 0.0000     band energies (ev):

   -18.1888 -18.1241 -14.4569 -14.4113  -9.1743  -9.1606  -5.5562  -5.0379
     0.3710   0.8795   4.9206   5.0384

     occupation numbers 
     1.0000   1.0000   1.0000   1.0000   1.0000   1.0000   1.0000   1.0000
     0.0000   0.0000   0.0000   0.0000

          k = 0.0000-0.5774 0.0000     band energies (ev):

   -16.9643 -16.9034 -15.9152 -15.8651  -9.3330  -9.3191  -4.7258  -4.2645
    -0.7049  -0.1237   4.8454   4.9601

     occupation numbers 
     1.0000   1.0000   1.0000   1.0000   1.0000   1.0000   1.0000   1.0000
     0.0000   0.0000   0.0000   0.0000

          k = 0.0833 0.1443 0.0000     band energies (ev):

   -21.6095 -21.5274  -9.3483  -8.6988  -7.6764  -7.6603  -7.0333  -7.0214
     3.4241   4.0126   5.9584   6.0031

     occupation numbers 
     1.0000   1.0000   1.0000   1.0000   1.0000   1.0000   1.0000   1.0000
     0.0000   0.0000   0.0000   0.0000

          k = 0.0833 0.2406 0.0000     band energies (ev):

   -20.9706 -20.8920  -9.3215  -9.2983  -8.5876  -7.9895  -7.9762  -7.9561
     5.5494   5.7940   6.1901   6.2826

     occupation numbers 
     1.0000   1.0000   1.0000   1.0000   1.0000   1.0000   1.0000   1.0000
     0.0000   0.0000   0.0000   0.0000

          k = 0.0833 0.3368 0.0000     band energies (ev):

   -20.0236 -19.9501 -11.3253 -11.2933  -8.8488  -8.8325  -7.4830  -6.8846
     3.4594   3.7936   5.8854   6.0490

     occupation numbers 
     1.0000   1.0000   1.0000   1.0000   1.0000   1.0000   1.0000   1.0000
     0.0000   0.0000   0.0000   0.0000

          k = 0.0833 0.4330 0.0000     band energies (ev):

   -18.7882 -18.7208 -13.3873 -13.3464  -9.4677  -9.4505  -6.1194  -5.5704
     1.2960   1.7303   5.6931   5.8165

     occupation numbers 
     1.0000   1.0000   1.0000   1.0000   1.0000   1.0000   1.0000   1.0000
     0.0000   0.0000   0.0000   0.0000

          k = 0.0833 0.5292 0.0000     band energies (ev):

   -17.3438 -17.2826 -15.2757 -15.2271  -9.7887  -9.7711  -4.8294  -4.3503
    -0.4382   0.0952   5.5486   5.6711

     occupation numbers 
     1.0000   1.0000   1.0000   1.0000   1.0000   1.0000   1.0000   1.0000
     0.0000   0.0000   0.0000   0.0000

          k = 0.1667 0.2887 0.0000     band energies (ev):

   -20.1808 -20.1064 -10.6171 -10.5890  -9.2875  -9.2671  -7.6600  -7.0553
     3.8821   4.1730   5.3773   7.4175

     occupation numbers 
     1.0000   1.0000   1.0000   1.0000   1.0000   1.0000   1.0000   1.0000
     0.0000   0.0000   0.0000   0.0000

          k = 0.1667 0.3849 0.0000     band energies (ev):

   -19.0945 -19.0257 -12.2909 -12.2553 -10.3101 -10.2861  -6.4206  -5.8558
     1.9785   2.3307   7.3158   7.7844

     occupation numbers 
     1.0000   1.0000   1.0000   1.0000   1.0000   1.0000   1.0000   1.0000
     0.0000   0.0000   0.0000   0.0000

          k = 0.1667 0.4811 0.0000     band energies (ev):

   -17.7483 -17.6860 -14.1443 -14.1005 -10.8742 -10.8489  -5.0122  -4.5053
     0.1051   0.5371   7.3732   7.5378

     occupation numbers 
     1.0000   1.0000   1.0000   1.0000   1.0000   1.0000   1.0000   1.0000
     0.0000   0.0000   0.0000   0.0000

          k = 0.1667 0.5774 0.0000     band energies (ev):

   -16.5526 -16.4944 -15.5309 -15.4821 -11.0556 -11.0299  -4.1342  -3.6810
    -0.9413  -0.4458   7.2796   7.4453

     occupation numbers 
     1.0000   1.0000   1.0000   1.0000   1.0000   1.0000   1.0000   1.0000
     0.0000   0.0000   0.0000   0.0000

          k = 0.2500 0.4330 0.0000     band energies (ev):

   -17.8924 -17.8296 -13.3085 -13.2684 -11.7317 -11.7013  -5.0943  -4.5760
     0.3880   0.7633   9.8776  10.1562

     occupation numbers 
     1.0000   1.0000   1.0000   1.0000   1.0000   1.0000   1.0000   1.0000
     0.0000   0.0000   0.0000   0.0000

          k = 0.2500 0.5292 0.0000     band energies (ev):

   -16.5061 -16.4496 -14.6850 -14.6385 -12.4210 -12.3878  -3.7280  -3.2673
    -1.1068  -0.6872   9.4958   9.8201

     occupation numbers 
     1.0000   1.0000   1.0000   1.0000   1.0000   1.0000   1.0000   1.0000
     0.0000   0.0000   0.0000   0.0000

          k = 0.3333 0.5774 0.0000     band energies (ev):

   -15.3244 -15.3237 -15.2737 -15.2730 -13.2717 -13.2356  -2.3907  -2.3900
    -1.9644  -1.9636  11.3553  11.4755

     occupation numbers 
     1.0000   1.0000   1.0000   1.0000   1.0000   1.0000   1.0000   1.0000
     0.0000   0.0000   0.0000   0.0000

          k =-0.0833 0.0481 0.0000     band energies (ev):

   -21.9307 -21.8469  -9.7344  -9.0755  -6.6857  -6.6738  -6.3914  -6.3818
     2.9879   5.6665   5.6838   6.2380

     occupation numbers 
     1.0000   1.0000   1.0000   1.0000   1.0000   1.0000   1.0000   1.0000
     0.0000   0.0000   0.0000   0.0000

          k =-0.1667 0.0962 0.0000     band energies (ev):

   -21.4492 -21.3680  -9.1569  -8.5120  -8.2509  -8.2318  -7.1506  -7.1395
     3.6012   4.2573   5.6600   5.7078

     occupation numbers 
     1.0000   1.0000   1.0000   1.0000   1.0000   1.0000   1.0000   1.0000
     0.0000   0.0000   0.0000   0.0000

          k =-0.2500 0.1443 0.0000     band energies (ev):

   -20.6532 -20.5763 -10.2741 -10.2462  -8.2153  -8.0009  -7.9884  -7.5955
     4.7267   5.0223   5.3247   5.4998

     occupation numbers 
     1.0000   1.0000   1.0000   1.0000   1.0000   1.0000   1.0000   1.0000
     0.0000   0.0000   0.0000   0.0000

          k =-0.3333 0.1925 0.0000     band energies (ev):

   -19.5555 -19.4843 -12.4117 -12.3748  -8.7138  -8.7004  -6.9608  -6.3808
     2.4687   2.8705   5.1191   5.2365

     occupation numbers 
     1.0000   1.0000   1.0000   1.0000   1.0000   1.0000   1.0000   1.0000
     0.0000   0.0000   0.0000   0.0000

          k =-0.4167 0.2406 0.0000     band energies (ev):

   -18.1889 -18.1241 -14.4564 -14.4108  -9.1750  -9.1612  -5.5566  -5.0383
     0.3718   0.8802   4.9202   5.0386

     occupation numbers 
     1.0000   1.0000   1.0000   1.0000   1.0000   1.0000   1.0000   1.0000
     0.0000   0.0000   0.0000   0.0000

          k = 0.5000-0.2887 0.0000     band energies (ev):

   -16.9647 -16.9038 -15.9144 -15.8643  -9.3336  -9.3197  -4.7264  -4.2651
    -0.7039  -0.1226   4.8452   4.9598

     occupation numbers 
     1.0000   1.0000   1.0000   1.0000   1.0000   1.0000   1.0000   1.0000
     0.0000   0.0000   0.0000   0.0000

          k = 0.1667-0.0000 0.0000     band energies (ev):

   -21.6094 -21.5273  -9.3484  -8.6988  -7.6753  -7.6591  -7.0345  -7.0226
     3.3771   4.0084   4.9484   5.8322

     occupation numbers 
     1.0000   1.0000   1.0000   1.0000   1.0000   1.0000   1.0000   1.0000
     0.0000   0.0000   0.0000   0.0000

          k =-0.1667 0.1925 0.0000     band energies (ev):

   -20.9706 -20.8920  -9.3210  -9.2978  -8.5876  -7.9901  -7.9767  -7.9561
     5.5484   5.7950   6.1586   6.2704

     occupation numbers 
     1.0000   1.0000   1.0000   1.0000   1.0000   1.0000   1.0000   1.0000
     0.0000   0.0000   0.0000   0.0000

          k = 0.2500 0.0481 0.0000     band energies (ev):

   -20.9706 -20.8920  -9.3205  -9.2973  -8.5877  -7.9906  -7.9772  -7.9562
     5.5505   5.7952   6.1354   6.2649

     occupation numbers 
     1.0000   1.0000   1.0000   1.0000   1.0000   1.0000   1.0000   1.0000
     0.0000   0.0000   0.0000   0.0000

          k =-0.2500 0.2406 0.0000     band energies (ev):

   -20.0236 -19.9501 -11.3248 -11.2928  -8.8494  -8.8332  -7.4831  -6.8847
     3.4596   3.7939   5.8895   6.0484

     occupation numbers 
     1.0000   1.0000   1.0000   1.0000   1.0000   1.0000   1.0000   1.0000
     0.0000   0.0000   0.0000   0.0000

          k = 0.3333 0.0962 0.0000     band energies (ev):

   -20.0236 -19.9500 -11.3246 -11.2927  -8.8496  -8.8334  -7.4831  -6.8847
     3.4598   3.7941   5.8872   6.0500

     occupation numbers 
     1.0000   1.0000   1.0000   1.0000   1.0000   1.0000   1.0000   1.0000
     0.0000   0.0000   0.0000   0.0000

          k =-0.3333 0.2887 0.0000     band energies (ev):

   -18.7882 -18.7208 -13.3869 -13.3459  -9.4683  -9.4511  -6.1196  -5.5706
     1.2965   1.7308   5.6931   5.8165

     occupation numbers 
     1.0000   1.0000   1.0000   1.0000   1.0000   1.0000   1.0000   1.0000
     0.0000   0.0000   0.0000   0.0000

          k = 0.4167 0.1443 0.0000     band energies (ev):

   -18.7882 -18.7207 -13.3868 -13.3459  -9.4684  -9.4512  -6.1197  -5.5707
     1.2967   1.7310   5.6930   5.8155

     occupation numbers 
     1.0000   1.0000   1.0000   1.0000   1.0000   1.0000   1.0000   1.0000
     0.0000   0.0000   0.0000   0.0000

          k =-0.4167 0.3368 0.0000     band energies (ev):

   -17.3439 -17.2828 -15.2751 -15.2265  -9.7893  -9.7717  -4.8299  -4.3509
    -0.4374   0.0961   5.5480   5.6706

     occupation numbers 
     1.0000   1.0000   1.0000   1.0000   1.0000   1.0000   1.0000   1.0000
     0.0000   0.0000   0.0000   0.0000

          k = 0.5000 0.1925 0.0000     band energies (ev):

   -17.3439 -17.2828 -15.2751 -15.2265  -9.7894  -9.7717  -4.8299  -4.3509
    -0.4372   0.0962   5.5479   5.6705

     occupation numbers 
     1.0000   1.0000   1.0000   1.0000   1.0000   1.0000   1.0000   1.0000
     0.0000   0.0000   0.0000   0.0000

          k = 0.3333-0.0000 0.0000     band energies (ev):

   -20.1808 -20.1064 -10.6163 -10.5882  -9.2883  -9.2680  -7.6600  -7.0554
     3.8825   4.1734   5.3674   7.4315

     occupation numbers 
     1.0000   1.0000   1.0000   1.0000   1.0000   1.0000   1.0000   1.0000
     0.0000   0.0000   0.0000   0.0000

          k =-0.2500 0.3368 0.0000     band energies (ev):

   -19.0945 -19.0257 -12.2905 -12.2550 -10.3105 -10.2865  -6.4207  -5.8559
     1.9786   2.3308   7.3301   7.7812

     occupation numbers 
     1.0000   1.0000   1.0000   1.0000   1.0000   1.0000   1.0000   1.0000
     0.0000   0.0000   0.0000   0.0000

          k = 0.4167 0.0481 0.0000     band energies (ev):

   -19.0945 -19.0257 -12.2902 -12.2546 -10.3110 -10.2870  -6.4208  -5.8560
     1.9790   2.3312   7.2567   7.7846

     occupation numbers 
     1.0000   1.0000   1.0000   1.0000   1.0000   1.0000   1.0000   1.0000
     0.0000   0.0000   0.0000   0.0000

          k =-0.3333 0.3849 0.0000     band energies (ev):

   -17.7484 -17.6860 -14.1438 -14.1000 -10.8747 -10.8494  -5.0125  -4.5055
     0.1055   0.5376   7.3729   7.5377

     occupation numbers 
     1.0000   1.0000   1.0000   1.0000   1.0000   1.0000   1.0000   1.0000
     0.0000   0.0000   0.0000   0.0000

          k = 0.5000 0.0962 0.0000     band energies (ev):

   -17.7484 -17.6860 -14.1437 -14.0999 -10.8749 -10.8495  -5.0126  -4.5057
     0.1058   0.5379   7.3715   7.5376

     occupation numbers 
     1.0000   1.0000   1.0000   1.0000   1.0000   1.0000   1.0000   1.0000
     0.0000   0.0000   0.0000   0.0000

          k =-0.4167 0.4330 0.0000     band energies (ev):

   -16.5530 -16.4949 -15.5300 -15.4812 -11.0562 -11.0305  -4.1348  -3.6816
    -0.9404  -0.4449   7.2790   7.4450

     occupation numbers 
     1.0000   1.0000   1.0000   1.0000   1.0000   1.0000   1.0000   1.0000
     0.0000   0.0000   0.0000   0.0000

          k = 0.5000 0.0000 0.0000     band energies (ev):

   -17.8924 -17.8296 -13.3078 -13.2677 -11.7324 -11.7021  -5.0945  -4.5763
     0.3885   0.7638   9.8794  10.1573

     occupation numbers 
     1.0000   1.0000   1.0000   1.0000   1.0000   1.0000   1.0000   1.0000
     0.0000   0.0000   0.0000   0.0000

          k =-0.3333 0.4811 0.0000     band energies (ev):

   -16.5062 -16.4497 -14.6846 -14.6381 -12.4214 -12.3882  -3.7283  -3.2677
    -1.1064  -0.6867   9.4835   9.8159

     occupation numbers 
     1.0000   1.0000   1.0000   1.0000   1.0000   1.0000   1.0000   1.0000
     0.0000   0.0000   0.0000   0.0000

          k = 0.5833 0.0481 0.0000     band energies (ev):

   -16.5063 -16.4498 -14.6843 -14.6378 -12.4216 -12.3884  -3.7285  -3.2679
    -1.1061  -0.6864   9.4868   9.8192

     occupation numbers 
     1.0000   1.0000   1.0000   1.0000   1.0000   1.0000   1.0000   1.0000
     0.0000   0.0000   0.0000   0.0000

     the Fermi energy is    -2.1607 ev

!    total energy              =     -45.55725642 Ry
     Harris-Foulkes estimate   =     -45.63293011 Ry
     estimated scf accuracy    <       0.13473833 Ry

     The total energy is the sum of the following terms:

     one-electron contribution =    -521.31029375 Ry
     hartree contribution      =     263.78393867 Ry
     xc contribution           =     -14.04597823 Ry
     ewald contribution        =     225.00644935 Ry
     scf correction            =       1.00862754 Ry
     smearing contrib. (-TS)   =       0.00000000 Ry

     iteration #  3     ecut=    40.00 Ry     beta=0.30
     Davidson diagonalization with overlap
     ethr =  8.42E-04,  avg # of iterations =  5.7

     negative rho (up, down):  7.646E-05 0.000E+00

     total cpu time spent up to now is       12.5 secs

          k = 0.0000 0.0000 0.0000     band energies (ev):

   -19.7854 -19.6807  -8.2805  -7.5081  -3.3035  -3.3019  -3.2923  -3.2906
     2.8416   3.2090   3.7889   5.0441

     occupation numbers 
     1.0000   1.0000   1.0000   1.0000   1.0000   1.0000   1.0000   1.0000
     0.0000   0.0000   0.0000   0.0000

          k = 0.0000 0.0962 0.0000     band energies (ev):

   -19.6211 -19.5174  -8.0826  -7.3150  -3.9529  -3.9378  -3.6391  -3.6269
     3.0635   3.4326   4.0165   5.2710

     occupation numbers 
     1.0000   1.0000   1.0000   1.0000   1.0000   1.0000   1.0000   1.0000
     0.0000   0.0000   0.0000   0.0000

          k = 0.0000 0.1925 0.0000     band energies (ev):

   -19.1299 -19.0295  -7.4940  -6.7412  -5.5886  -5.5641  -4.4286  -4.4147
     3.7286   4.1030   4.6917   5.9326

     occupation numbers 
     1.0000   1.0000   1.0000   1.0000   1.0000   1.0000   1.0000   1.0000
     0.0000   0.0000   0.0000   0.0000

          k = 0.0000 0.2887 0.0000     band energies (ev):

   -18.3179 -18.2225  -7.6859  -7.6506  -6.5326  -5.8066  -5.3054  -5.2898
     4.8335   5.2186   5.8134   6.6990

     occupation numbers 
     1.0000   1.0000   1.0000   1.0000   1.0000   1.0000   1.0000   1.0000
     0.0000   0.0000   0.0000   0.0000

          k = 0.0000 0.3849 0.0000     band energies (ev):

   -17.1971 -17.1086  -9.8892  -9.8427  -6.0364  -6.0196  -5.2463  -4.5635
     4.3639   4.8529   7.3103   7.4780

     occupation numbers 
     1.0000   1.0000   1.0000   1.0000   1.0000   1.0000   1.0000   1.0000
     0.0000   0.0000   0.0000   0.0000

          k = 0.0000 0.4811 0.0000     band energies (ev):

   -15.7992 -15.7185 -11.9905 -11.9333  -6.5077  -6.4904  -3.7924  -3.1784
     2.1681   2.7828   7.1133   7.2563

     occupation numbers 
     1.0000   1.0000   1.0000   1.0000   1.0000   1.0000   1.0000   1.0000
     0.0000   0.0000   0.0000   0.0000

          k = 0.0000-0.5774 0.0000     band energies (ev):

   -14.5348 -14.4588 -13.4970 -13.4344  -6.6695  -6.6521  -2.9146  -2.3678
     1.0281   1.7293   7.0321   7.1729

     occupation numbers 
     1.0000   1.0000   1.0000   1.0000   1.0000   1.0000   1.0000   1.0000
     0.0000   0.0000   0.0000   0.0000

          k = 0.0833 0.1443 0.0000     band energies (ev):

   -19.2933 -19.1918  -7.6892  -6.9314  -4.9842  -4.9638  -4.3155  -4.3005
     3.5071   3.8791   4.4628   5.7146

     occupation numbers 
     1.0000   1.0000   1.0000   1.0000   1.0000   1.0000   1.0000   1.0000
     0.0000   0.0000   0.0000   0.0000

          k = 0.0833 0.2406 0.0000     band energies (ev):

   -18.6418 -18.5444  -6.9132  -6.6930  -6.6632  -6.1759  -5.3110  -5.2923
     4.3943   4.7717   5.3865   6.6132

     occupation numbers 
     1.0000   1.0000   1.0000   1.0000   1.0000   1.0000   1.0000   1.0000
     0.0000   0.0000   0.0000   0.0000

          k = 0.0833 0.3368 0.0000     band energies (ev):

   -17.6752 -17.5838  -8.7657  -8.7254  -6.1947  -6.1741  -5.7831  -5.0804
     5.4171   5.7734   5.7929   6.1748

     occupation numbers 
     1.0000   1.0000   1.0000   1.0000   1.0000   1.0000   1.0000   1.0000
     0.0000   0.0000   0.0000   0.0000

          k = 0.0833 0.4330 0.0000     band energies (ev):

   -16.4126 -16.3287 -10.8894 -10.8380  -6.8277  -6.8060  -4.3801  -3.7315
     3.1578   3.6854   7.9093   8.0715

     occupation numbers 
     1.0000   1.0000   1.0000   1.0000   1.0000   1.0000   1.0000   1.0000
     0.0000   0.0000   0.0000   0.0000

          k = 0.0833 0.5292 0.0000     band energies (ev):

   -14.9313 -14.8550 -12.8320 -12.7711  -7.1552  -7.1329  -3.0328  -2.4644
     1.3336   1.9781   7.7617   7.9136

     occupation numbers 
     1.0000   1.0000   1.0000   1.0000   1.0000   1.0000   1.0000   1.0000
     0.0000   0.0000   0.0000   0.0000

          k = 0.1667 0.2887 0.0000     band energies (ev):

   -17.8355 -17.7433  -8.0217  -7.9859  -6.6733  -6.6470  -5.9647  -5.2553
     5.5145   5.8929   6.1942   6.2464

     occupation numbers 
     1.0000   1.0000   1.0000   1.0000   1.0000   1.0000   1.0000   1.0000
     0.0000   0.0000   0.0000   0.0000

          k = 0.1667 0.3849 0.0000     band energies (ev):

   -16.7258 -16.6402  -9.7496  -9.7049  -7.7280  -7.6978  -4.6936  -4.0275
     3.9162   4.3429   7.0582   7.4545

     occupation numbers 
     1.0000   1.0000   1.0000   1.0000   1.0000   1.0000   1.0000   1.0000
     0.0000   0.0000   0.0000   0.0000

          k = 0.1667 0.4811 0.0000     band energies (ev):

   -15.3477 -15.2700 -11.6618 -11.6068  -8.3030  -8.2709  -3.2377  -2.6365
     1.9616   2.4841   9.6110   9.8304

     occupation numbers 
     1.0000   1.0000   1.0000   1.0000   1.0000   1.0000   1.0000   1.0000
     0.0000   0.0000   0.0000   0.0000

          k = 0.1667 0.5774 0.0000     band energies (ev):

   -14.1123 -14.0396 -13.0975 -13.0364  -8.4875  -8.4548  -2.3141  -1.7763
     0.8570   1.4561   9.5252   9.7386

     occupation numbers 
     1.0000   1.0000   1.0000   1.0000   1.0000   1.0000   1.0000   1.0000
     0.0000   0.0000   0.0000   0.0000

          k = 0.2500 0.4330 0.0000     band energies (ev):

   -15.4955 -15.4172 -10.7849 -10.7344  -9.2128  -9.1742  -3.3286  -2.7143
     2.2956   2.7469   8.7773   9.1135

     occupation numbers 
     1.0000   1.0000   1.0000   1.0000   1.0000   1.0000   1.0000   1.0000
     0.0000   0.0000   0.0000   0.0000

          k = 0.2500 0.5292 0.0000     band energies (ev):

   -14.0712 -14.0006 -12.2079 -12.1496  -9.9204  -9.8784  -1.9126  -1.3647
     0.7534   1.2574   9.8418  10.8193

     occupation numbers 
     1.0000   1.0000   1.0000   1.0000   1.0000   1.0000   1.0000   1.0000
     0.0000   0.0000   0.0000   0.0000

          k = 0.3333 0.5774 0.0000     band energies (ev):

   -12.8523 -12.8517 -12.7887 -12.7881 -10.8171 -10.7716  -0.5415  -0.5408
    -0.0329  -0.0321   9.4106  12.1952

     occupation numbers 
     1.0000   1.0000   1.0000   1.0000   1.0000   1.0000   1.0000   1.0000
     0.0000   0.0000   0.0000   0.0000

          k =-0.0833 0.0481 0.0000     band energies (ev):

   -19.6211 -19.5174  -8.0826  -7.3150  -3.9518  -3.9367  -3.6403  -3.6280
     3.0636   3.4348   4.0193   5.2581

     occupation numbers 
     1.0000   1.0000   1.0000   1.0000   1.0000   1.0000   1.0000   1.0000
     0.0000   0.0000   0.0000   0.0000

          k =-0.1667 0.0962 0.0000     band energies (ev):

   -19.1299 -19.0295  -7.4940  -6.7412  -5.5877  -5.5632  -4.4295  -4.4156
     3.7288   4.1024   4.6887   5.9306

     occupation numbers 
     1.0000   1.0000   1.0000   1.0000   1.0000   1.0000   1.0000   1.0000
     0.0000   0.0000   0.0000   0.0000

          k =-0.2500 0.1443 0.0000     band energies (ev):

   -18.3179 -18.2225  -7.6853  -7.6500  -6.5326  -5.8067  -5.3062  -5.2906
     4.8336   5.2182   5.8135   6.6992

     occupation numbers 
     1.0000   1.0000   1.0000   1.0000   1.0000   1.0000   1.0000   1.0000
     0.0000   0.0000   0.0000   0.0000

          k =-0.3333 0.1925 0.0000     band energies (ev):

   -17.1971 -17.1086  -9.8887  -9.8422  -6.0370  -6.0203  -5.2464  -4.5636
     4.3643   4.8533   7.3130   7.4778

     occupation numbers 
     1.0000   1.0000   1.0000   1.0000   1.0000   1.0000   1.0000   1.0000
     0.0000   0.0000   0.0000   0.0000

          k =-0.4167 0.2406 0.0000     band energies (ev):

   -15.7992 -15.7185 -11.9901 -11.9328  -6.5083  -6.4910  -3.7927  -3.1788
     2.1688   2.7835   7.1130   7.2563

     occupation numbers 
     1.0000   1.0000   1.0000   1.0000   1.0000   1.0000   1.0000   1.0000
     0.0000   0.0000   0.0000   0.0000

          k = 0.5000-0.2887 0.0000     band energies (ev):

   -14.5352 -14.4592 -13.4962 -13.4336  -6.6701  -6.6527  -2.9152  -2.3684
     1.0290   1.7302   7.0318   7.1726

     occupation numbers 
     1.0000   1.0000   1.0000   1.0000   1.0000   1.0000   1.0000   1.0000
     0.0000   0.0000   0.0000   0.0000

          k = 0.1667-0.0000 0.0000     band energies (ev):

   -19.2933 -19.1918  -7.6892  -6.9314  -4.9832  -4.9627  -4.3166  -4.3012
     3.5080   3.9150   4.4684   6.0425

     occupation numbers 
     1.0000   1.0000   1.0000   1.0000   1.0000   1.0000   1.0000   1.0000
     0.0000   0.0000   0.0000   0.0000

          k =-0.1667 0.1925 0.0000     band energies (ev):

   -18.6418 -18.5444  -6.9132  -6.6926  -6.6628  -6.1760  -5.3114  -5.2928
     4.3972   4.7715   5.3679   6.6068

     occupation numbers 
     1.0000   1.0000   1.0000   1.0000   1.0000   1.0000   1.0000   1.0000
     0.0000   0.0000   0.0000   0.0000

          k = 0.2500 0.0481 0.0000     band energies (ev):

   -18.6418 -18.5444  -6.9133  -6.6921  -6.6623  -6.1760  -5.3119  -5.2933
     4.3959   4.7715   5.3672   6.6098

     occupation numbers 
     1.0000   1.0000   1.0000   1.0000   1.0000   1.0000   1.0000   1.0000
     0.0000   0.0000   0.0000   0.0000

          k =-0.2500 0.2406 0.0000     band energies (ev):

   -17.6752 -17.5838  -8.7652  -8.7249  -6.1953  -6.1747  -5.7832  -5.0804
     5.4164   5.7242   5.8214   6.5699

     occupation numbers 
     1.0000   1.0000   1.0000   1.0000   1.0000   1.0000   1.0000   1.0000
     0.0000   0.0000   0.0000   0.0000

          k = 0.3333 0.0962 0.0000     band energies (ev):

   -17.6751 -17.5838  -8.7651  -8.7248  -6.1955  -6.1749  -5.7832  -5.0805
     5.4166   5.7408   5.7931   6.1798

     occupation numbers 
     1.0000   1.0000   1.0000   1.0000   1.0000   1.0000   1.0000   1.0000
     0.0000   0.0000   0.0000   0.0000

          k =-0.3333 0.2887 0.0000     band energies (ev):

   -16.4126 -16.3287 -10.8890 -10.8376  -6.8283  -6.8065  -4.3803  -3.7317
     3.1583   3.6859   7.9091   8.0713

     occupation numbers 
     1.0000   1.0000   1.0000   1.0000   1.0000   1.0000   1.0000   1.0000
     0.0000   0.0000   0.0000   0.0000

          k = 0.4167 0.1443 0.0000     band energies (ev):

   -16.4126 -16.3287 -10.8889 -10.8375  -6.8283  -6.8066  -4.3803  -3.7317
     3.1584   3.6860   7.9090   8.0710

     occupation numbers 
     1.0000   1.0000   1.0000   1.0000   1.0000   1.0000   1.0000   1.0000
     0.0000   0.0000   0.0000   0.0000

          k =-0.4167 0.3368 0.0000     band energies (ev):

   -14.9314 -14.8551 -12.8316 -12.7707  -7.1558  -7.1334  -3.0332  -2.4649
     1.3343   1.9789   7.7613   7.9133

     occupation numbers 
     1.0000   1.0000   1.0000   1.0000   1.0000   1.0000   1.0000   1.0000
     0.0000   0.0000   0.0000   0.0000

          k = 0.5000 0.1925 0.0000     band energies (ev):

   -14.9314 -14.8551 -12.8315 -12.7706  -7.1558  -7.1335  -3.0333  -2.4649
     1.3344   1.9789   7.7612   7.9132

     occupation numbers 
     1.0000   1.0000   1.0000   1.0000   1.0000   1.0000   1.0000   1.0000
     0.0000   0.0000   0.0000   0.0000

          k = 0.3333-0.0000 0.0000     band energies (ev):

   -17.8355 -17.7433  -8.0210  -7.9852  -6.6742  -6.6478  -5.9648  -5.2554
     5.5025   5.8844   5.8932   6.2476

     occupation numbers 
     1.0000   1.0000   1.0000   1.0000   1.0000   1.0000   1.0000   1.0000
     0.0000   0.0000   0.0000   0.0000

          k =-0.2500 0.3368 0.0000     band energies (ev):

   -16.7258 -16.6402  -9.7493  -9.7046  -7.7284  -7.6981  -4.6936  -4.0275
     3.9164   4.3431   7.0607   7.4531

     occupation numbers 
     1.0000   1.0000   1.0000   1.0000   1.0000   1.0000   1.0000   1.0000
     0.0000   0.0000   0.0000   0.0000

          k = 0.4167 0.0481 0.0000     band energies (ev):

   -16.7257 -16.6402  -9.7489  -9.7042  -7.7288  -7.6985  -4.6937  -4.0277
     3.9167   4.3434   7.0751   7.4544

     occupation numbers 
     1.0000   1.0000   1.0000   1.0000   1.0000   1.0000   1.0000   1.0000
     0.0000   0.0000   0.0000   0.0000

          k =-0.3333 0.3849 0.0000     band energies (ev):

   -15.3478 -15.2700 -11.6614 -11.6064  -8.3035  -8.2713  -3.2380  -2.6367
     1.9621   2.4846   9.6105   9.8301

     occupation numbers 
     1.0000   1.0000   1.0000   1.0000   1.0000   1.0000   1.0000   1.0000
     0.0000   0.0000   0.0000   0.0000

          k = 0.5000 0.0962 0.0000     band energies (ev):

   -15.3477 -15.2700 -11.6613 -11.6063  -8.3036  -8.2715  -3.2381  -2.6368
     1.9623   2.4849   9.6094   9.8300

     occupation numbers 
     1.0000   1.0000   1.0000   1.0000   1.0000   1.0000   1.0000   1.0000
     0.0000   0.0000   0.0000   0.0000

          k =-0.4167 0.4330 0.0000     band energies (ev):

   -14.1127 -14.0400 -13.0967 -13.0357  -8.4879  -8.4553  -2.3146  -1.7769
     0.8578   1.4570   9.5245   9.7382

     occupation numbers 
     1.0000   1.0000   1.0000   1.0000   1.0000   1.0000   1.0000   1.0000
     0.0000   0.0000   0.0000   0.0000

          k = 0.5000 0.0000 0.0000     band energies (ev):

   -15.4955 -15.4172 -10.7843 -10.7338  -9.2134  -9.1749  -3.3288  -2.7145
     2.2961   2.7474   8.7728   9.1188

     occupation numbers 
     1.0000   1.0000   1.0000   1.0000   1.0000   1.0000   1.0000   1.0000
     0.0000   0.0000   0.0000   0.0000

          k =-0.3333 0.4811 0.0000     band energies (ev):

   -14.0713 -14.0007 -12.2075 -12.1492  -9.9207  -9.8788  -1.9128  -1.3649
     0.7538   1.2580   9.8395  10.8165

     occupation numbers 
     1.0000   1.0000   1.0000   1.0000   1.0000   1.0000   1.0000   1.0000
     0.0000   0.0000   0.0000   0.0000

          k = 0.5833 0.0481 0.0000     band energies (ev):

   -14.0713 -14.0008 -12.2073 -12.1490  -9.9209  -9.8789  -1.9130  -1.3652
     0.7541   1.2584   9.8390  10.8181

     occupation numbers 
     1.0000   1.0000   1.0000   1.0000   1.0000   1.0000   1.0000   1.0000
     0.0000   0.0000   0.0000   0.0000

     the Fermi energy is    -0.2967 ev

!    total energy              =     -45.57847639 Ry
     Harris-Foulkes estimate   =     -45.57865387 Ry
     estimated scf accuracy    <       0.00241279 Ry

     The total energy is the sum of the following terms:

     one-electron contribution =    -519.89682939 Ry
     hartree contribution      =     263.17389149 Ry
     xc contribution           =     -13.99002208 Ry
     ewald contribution        =     225.00644935 Ry
     scf correction            =       0.12803426 Ry
     smearing contrib. (-TS)   =       0.00000000 Ry

     iteration #  4     ecut=    40.00 Ry     beta=0.30
     Davidson diagonalization with overlap
     ethr =  1.51E-05,  avg # of iterations =  5.1

     negative rho (up, down):  5.563E-05 0.000E+00

     total cpu time spent up to now is       19.1 secs

          k = 0.0000 0.0000 0.0000     band energies (ev):

   -20.2866 -20.1838  -8.6718  -7.9128  -3.8785  -3.8769  -3.8675  -3.8659
     2.8669   3.3004   3.9034   5.1513

     occupation numbers 
     1.0000   1.0000   1.0000   1.0000   1.0000   1.0000   1.0000   1.0000
     0.0000   0.0000   0.0000   0.0000

          k = 0.0000 0.0962 0.0000     band energies (ev):

   -20.1228 -20.0211  -8.4746  -7.7202  -4.5231  -4.5084  -4.2123  -4.2005
     3.0868   3.5235   4.1287   5.3750

     occupation numbers 
     1.0000   1.0000   1.0000   1.0000   1.0000   1.0000   1.0000   1.0000
     0.0000   0.0000   0.0000   0.0000

          k = 0.0000 0.1925 0.0000     band energies (ev):

   -19.6332 -19.5347  -7.8879  -7.1482  -6.1480  -6.1244  -4.9985  -4.9850
     3.7461   4.1917   4.8045   6.0454

     occupation numbers 
     1.0000   1.0000   1.0000   1.0000   1.0000   1.0000   1.0000   1.0000
     0.0000   0.0000   0.0000   0.0000

          k = 0.0000 0.2887 0.0000     band energies (ev):

   -18.8238 -18.7303  -8.2336  -8.1992  -6.9300  -6.2170  -5.8722  -5.8570
     4.8403   5.2933   5.9250   6.2702

     occupation numbers 
     1.0000   1.0000   1.0000   1.0000   1.0000   1.0000   1.0000   1.0000
     0.0000   0.0000   0.0000   0.0000

          k = 0.0000 0.3849 0.0000     band energies (ev):

   -17.7068 -17.6201 -10.4263 -10.3809  -6.6010  -6.5847  -5.6495  -4.9792
     3.9316   4.4107   6.3326   6.8366

     occupation numbers 
     1.0000   1.0000   1.0000   1.0000   1.0000   1.0000   1.0000   1.0000
     0.0000   0.0000   0.0000   0.0000

          k = 0.0000 0.4811 0.0000     band energies (ev):

   -16.3141 -16.2350 -12.5183 -12.4624  -7.0711  -7.0543  -4.2048  -3.6023
     1.7531   2.3561   6.6293   6.7683

     occupation numbers 
     1.0000   1.0000   1.0000   1.0000   1.0000   1.0000   1.0000   1.0000
     0.0000   0.0000   0.0000   0.0000

          k = 0.0000-0.5774 0.0000     band energies (ev):

   -15.0561 -14.9815 -14.0171 -13.9561  -7.2326  -7.2156  -3.3362  -2.7993
     0.6248   1.3120   6.5516   6.6888

     occupation numbers 
     1.0000   1.0000   1.0000   1.0000   1.0000   1.0000   1.0000   1.0000
     0.0000   0.0000   0.0000   0.0000

          k = 0.0833 0.1443 0.0000     band energies (ev):

   -19.7961 -19.6965  -8.0825  -7.3378  -5.5484  -5.5285  -4.8844  -4.8697
     3.5267   3.9694   4.5795   5.8226

     occupation numbers 
     1.0000   1.0000   1.0000   1.0000   1.0000   1.0000   1.0000   1.0000
     0.0000   0.0000   0.0000   0.0000

          k = 0.0833 0.2406 0.0000     band energies (ev):

   -19.1466 -19.0511  -7.3097  -7.2465  -7.2183  -6.5849  -5.8746  -5.8567
     4.4053   4.8581   5.4807   6.7145

     occupation numbers 
     1.0000   1.0000   1.0000   1.0000   1.0000   1.0000   1.0000   1.0000
     0.0000   0.0000   0.0000   0.0000

          k = 0.0833 0.3368 0.0000     band energies (ev):

   -18.1833 -18.0937  -9.3087  -9.2693  -6.7553  -6.7352  -6.1837  -5.4936
     4.9771   5.3687   5.7141   6.2094

     occupation numbers 
     1.0000   1.0000   1.0000   1.0000   1.0000   1.0000   1.0000   1.0000
     0.0000   0.0000   0.0000   0.0000

          k = 0.0833 0.4330 0.0000     band energies (ev):

   -16.9252 -16.8430 -11.4224 -11.3722  -7.3864  -7.3652  -4.7879  -4.1513
     2.7308   3.2487   7.3036   7.5676

     occupation numbers 
     1.0000   1.0000   1.0000   1.0000   1.0000   1.0000   1.0000   1.0000
     0.0000   0.0000   0.0000   0.0000

          k = 0.0833 0.5292 0.0000     band energies (ev):

   -15.4499 -15.3751 -13.3562 -13.2968  -7.7130  -7.6913  -3.4514  -2.8935
     0.9226   1.5545   7.2756   7.4240

     occupation numbers 
     1.0000   1.0000   1.0000   1.0000   1.0000   1.0000   1.0000   1.0000
     0.0000   0.0000   0.0000   0.0000

          k = 0.1667 0.2887 0.0000     band energies (ev):

   -18.3432 -18.2527  -8.5703  -8.5357  -7.2271  -7.2017  -6.3643  -5.6678
     5.4423   5.5002   5.7909   5.9639

     occupation numbers 
     1.0000   1.0000   1.0000   1.0000   1.0000   1.0000   1.0000   1.0000
     0.0000   0.0000   0.0000   0.0000

          k = 0.1667 0.3849 0.0000     band energies (ev):

   -17.2372 -17.1534 -10.2895 -10.2458  -8.2770  -8.2474  -5.0990  -4.4452
     3.4761   3.8958   7.0170   7.4948

     occupation numbers 
     1.0000   1.0000   1.0000   1.0000   1.0000   1.0000   1.0000   1.0000
     0.0000   0.0000   0.0000   0.0000

          k = 0.1667 0.4811 0.0000     band energies (ev):

   -15.8644 -15.7883 -12.1922 -12.1385  -8.8501  -8.8189  -3.6519  -3.0619
     1.5344   2.0473   8.8682   9.1974

     occupation numbers 
     1.0000   1.0000   1.0000   1.0000   1.0000   1.0000   1.0000   1.0000
     0.0000   0.0000   0.0000   0.0000

          k = 0.1667 0.5774 0.0000     band energies (ev):

   -14.6354 -14.5640 -13.6201 -13.5605  -9.0341  -9.0023  -2.7370  -2.2089
     0.4398   1.0272   9.0299   9.2408

     occupation numbers 
     1.0000   1.0000   1.0000   1.0000   1.0000   1.0000   1.0000   1.0000
     0.0000   0.0000   0.0000   0.0000

          k = 0.2500 0.4330 0.0000     band energies (ev):

   -16.0116 -15.9349 -11.3217 -11.2724  -9.7513  -9.7139  -3.7410  -3.1382
     1.8599   2.3032   8.7120   9.1578

     occupation numbers 
     1.0000   1.0000   1.0000   1.0000   1.0000   1.0000   1.0000   1.0000
     0.0000   0.0000   0.0000   0.0000

          k = 0.2500 0.5292 0.0000     band energies (ev):

   -14.5935 -14.5244 -12.7373 -12.6803 -10.4557 -10.4149  -2.3340  -1.7962
     0.3254   0.8198   9.5738  10.6552

     occupation numbers 
     1.0000   1.0000   1.0000   1.0000   1.0000   1.0000   1.0000   1.0000
     0.0000   0.0000   0.0000   0.0000

          k = 0.3333 0.5774 0.0000     band energies (ev):

   -13.3805 -13.3800 -13.3183 -13.3178 -11.3452 -11.3011  -0.9685  -0.9678
    -0.4694  -0.4686   9.1374  10.8805

     occupation numbers 
     1.0000   1.0000   1.0000   1.0000   1.0000   1.0000   1.0000   1.0000
     0.0000   0.0000   0.0000   0.0000

          k =-0.0833 0.0481 0.0000     band energies (ev):

   -20.1228 -20.0211  -8.4746  -7.7202  -4.5220  -4.5074  -4.2134  -4.2016
     3.0868   3.5235   4.1286   5.3751

     occupation numbers 
     1.0000   1.0000   1.0000   1.0000   1.0000   1.0000   1.0000   1.0000
     0.0000   0.0000   0.0000   0.0000

          k =-0.1667 0.0962 0.0000     band energies (ev):

   -19.6332 -19.5346  -7.8879  -7.1482  -6.1472  -6.1236  -4.9994  -4.9858
     3.7461   4.1917   4.8046   6.0457

     occupation numbers 
     1.0000   1.0000   1.0000   1.0000   1.0000   1.0000   1.0000   1.0000
     0.0000   0.0000   0.0000   0.0000

          k =-0.2500 0.1443 0.0000     band energies (ev):

   -18.8238 -18.7303  -8.2330  -8.1986  -6.9301  -6.2171  -5.8730  -5.8578
     4.8403   5.2932   5.9250   6.2704

     occupation numbers 
     1.0000   1.0000   1.0000   1.0000   1.0000   1.0000   1.0000   1.0000
     0.0000   0.0000   0.0000   0.0000

          k =-0.3333 0.1925 0.0000     band energies (ev):

   -17.7068 -17.6201 -10.4258 -10.3805  -6.6016  -6.5853  -5.6496  -4.9793
     3.9320   4.4112   6.3326   6.8366

     occupation numbers 
     1.0000   1.0000   1.0000   1.0000   1.0000   1.0000   1.0000   1.0000
     0.0000   0.0000   0.0000   0.0000

          k =-0.4167 0.2406 0.0000     band energies (ev):

   -16.3141 -16.2350 -12.5180 -12.4621  -7.0717  -7.0549  -4.2051  -3.6026
     1.7537   2.3568   6.6290   6.7681

     occupation numbers 
     1.0000   1.0000   1.0000   1.0000   1.0000   1.0000   1.0000   1.0000
     0.0000   0.0000   0.0000   0.0000

          k = 0.5000-0.2887 0.0000     band energies (ev):

   -15.0564 -14.9818 -14.0165 -13.9554  -7.2331  -7.2161  -3.3368  -2.7999
     0.6257   1.3130   6.5514   6.6886

     occupation numbers 
     1.0000   1.0000   1.0000   1.0000   1.0000   1.0000   1.0000   1.0000
     0.0000   0.0000   0.0000   0.0000

          k = 0.1667-0.0000 0.0000     band energies (ev):

   -19.7961 -19.6965  -8.0825  -7.3379  -5.5474  -5.5275  -4.8854  -4.8708
     3.5268   3.9694   4.5794   5.8226

     occupation numbers 
     1.0000   1.0000   1.0000   1.0000   1.0000   1.0000   1.0000   1.0000
     0.0000   0.0000   0.0000   0.0000

          k =-0.1667 0.1925 0.0000     band energies (ev):

   -19.1466 -19.0511  -7.3097  -7.2461  -7.2178  -6.5850  -5.8751  -5.8572
     4.4053   4.8581   5.4808   6.7148

     occupation numbers 
     1.0000   1.0000   1.0000   1.0000   1.0000   1.0000   1.0000   1.0000
     0.0000   0.0000   0.0000   0.0000

          k = 0.2500 0.0481 0.0000     band energies (ev):

   -19.1466 -19.0511  -7.3097  -7.2457  -7.2174  -6.5850  -5.8756  -5.8577
     4.4052   4.8581   5.4808   6.7145

     occupation numbers 
     1.0000   1.0000   1.0000   1.0000   1.0000   1.0000   1.0000   1.0000
     0.0000   0.0000   0.0000   0.0000

          k =-0.2500 0.2406 0.0000     band energies (ev):

   -18.1833 -18.0937  -9.3083  -9.2689  -6.7559  -6.7357  -6.1837  -5.4937
     4.9773   5.3689   5.7141   6.2094

     occupation numbers 
     1.0000   1.0000   1.0000   1.0000   1.0000   1.0000   1.0000   1.0000
     0.0000   0.0000   0.0000   0.0000

          k = 0.3333 0.0962 0.0000     band energies (ev):

   -18.1833 -18.0937  -9.3081  -9.2688  -6.7560  -6.7359  -6.1838  -5.4937
     4.9775   5.3692   5.7143   6.2101

     occupation numbers 
     1.0000   1.0000   1.0000   1.0000   1.0000   1.0000   1.0000   1.0000
     0.0000   0.0000   0.0000   0.0000

          k =-0.3333 0.2887 0.0000     band energies (ev):

   -16.9252 -16.8430 -11.4220 -11.3718  -7.3869  -7.3657  -4.7880  -4.1515
     2.7313   3.2491   7.3033   7.5673

     occupation numbers 
     1.0000   1.0000   1.0000   1.0000   1.0000   1.0000   1.0000   1.0000
     0.0000   0.0000   0.0000   0.0000

          k = 0.4167 0.1443 0.0000     band energies (ev):

   -16.9252 -16.8430 -11.4220 -11.3718  -7.3870  -7.3658  -4.7881  -4.1515
     2.7314   3.2493   7.3034   7.5672

     occupation numbers 
     1.0000   1.0000   1.0000   1.0000   1.0000   1.0000   1.0000   1.0000
     0.0000   0.0000   0.0000   0.0000

          k =-0.4167 0.3368 0.0000     band energies (ev):

   -15.4500 -15.3752 -13.3558 -13.2963  -7.7135  -7.6918  -3.4518  -2.8940
     0.9233   1.5553   7.2754   7.4238

     occupation numbers 
     1.0000   1.0000   1.0000   1.0000   1.0000   1.0000   1.0000   1.0000
     0.0000   0.0000   0.0000   0.0000

          k = 0.5000 0.1925 0.0000     band energies (ev):

   -15.4499 -15.3752 -13.3558 -13.2963  -7.7135  -7.6918  -3.4519  -2.8940
     0.9234   1.5553   7.2753   7.4237

     occupation numbers 
     1.0000   1.0000   1.0000   1.0000   1.0000   1.0000   1.0000   1.0000
     0.0000   0.0000   0.0000   0.0000

          k = 0.3333-0.0000 0.0000     band energies (ev):

   -18.3432 -18.2527  -8.5696  -8.5350  -7.2279  -7.2025  -6.3644  -5.6679
     5.4426   5.5008   5.7913   5.9642

     occupation numbers 
     1.0000   1.0000   1.0000   1.0000   1.0000   1.0000   1.0000   1.0000
     0.0000   0.0000   0.0000   0.0000

          k =-0.2500 0.3368 0.0000     band energies (ev):

   -17.2372 -17.1534 -10.2892 -10.2455  -8.2774  -8.2478  -5.0991  -4.4452
     3.4763   3.8960   7.0170   7.4948

     occupation numbers 
     1.0000   1.0000   1.0000   1.0000   1.0000   1.0000   1.0000   1.0000
     0.0000   0.0000   0.0000   0.0000

          k = 0.4167 0.0481 0.0000     band energies (ev):

   -17.2372 -17.1533 -10.2889 -10.2452  -8.2777  -8.2482  -5.0992  -4.4454
     3.4766   3.8963   7.0167   7.4948

     occupation numbers 
     1.0000   1.0000   1.0000   1.0000   1.0000   1.0000   1.0000   1.0000
     0.0000   0.0000   0.0000   0.0000

          k =-0.3333 0.3849 0.0000     band energies (ev):

   -15.8645 -15.7883 -12.1919 -12.1381  -8.8506  -8.8193  -3.6521  -3.0621
     1.5348   2.0478   8.8683   9.1970

     occupation numbers 
     1.0000   1.0000   1.0000   1.0000   1.0000   1.0000   1.0000   1.0000
     0.0000   0.0000   0.0000   0.0000

          k = 0.5000 0.0962 0.0000     band energies (ev):

   -15.8645 -15.7883 -12.1918 -12.1380  -8.8507  -8.8194  -3.6523  -3.0623
     1.5351   2.0480   8.8680   9.1971

     occupation numbers 
     1.0000   1.0000   1.0000   1.0000   1.0000   1.0000   1.0000   1.0000
     0.0000   0.0000   0.0000   0.0000

          k =-0.4167 0.4330 0.0000     band energies (ev):

   -14.6357 -14.5644 -13.6194 -13.5599  -9.0345  -9.0028  -2.7375  -2.2094
     0.4407   1.0281   9.0296   9.2405

     occupation numbers 
     1.0000   1.0000   1.0000   1.0000   1.0000   1.0000   1.0000   1.0000
     0.0000   0.0000   0.0000   0.0000

          k = 0.5000 0.0000 0.0000     band energies (ev):

   -16.0116 -15.9349 -11.3212 -11.2719  -9.7519  -9.7145  -3.7412  -3.1384
     1.8604   2.3037   8.7120   9.1574

     occupation numbers 
     1.0000   1.0000   1.0000   1.0000   1.0000   1.0000   1.0000   1.0000
     0.0000   0.0000   0.0000   0.0000

          k =-0.3333 0.4811 0.0000     band energies (ev):

   -14.5936 -14.5244 -12.7369 -12.6799 -10.4560 -10.4153  -2.3343  -1.7965
     0.3258   0.8202   9.5735  10.6556

     occupation numbers 
     1.0000   1.0000   1.0000   1.0000   1.0000   1.0000   1.0000   1.0000
     0.0000   0.0000   0.0000   0.0000

          k = 0.5833 0.0481 0.0000     band energies (ev):

   -14.5936 -14.5245 -12.7368 -12.6797 -10.4561 -10.4154  -2.3345  -1.7967
     0.3261   0.8205   9.5733  10.6553

     occupation numbers 
     1.0000   1.0000   1.0000   1.0000   1.0000   1.0000   1.0000   1.0000
     0.0000   0.0000   0.0000   0.0000

     the Fermi energy is    -0.8065 ev

!    total energy              =     -45.57864786 Ry
     Harris-Foulkes estimate   =     -45.57923337 Ry
     estimated scf accuracy    <       0.00144621 Ry

     The total energy is the sum of the following terms:

     one-electron contribution =    -520.30225683 Ry
     hartree contribution      =     263.37328335 Ry
     xc contribution           =     -14.01441123 Ry
     ewald contribution        =     225.00644935 Ry
     scf correction            =       0.35828749 Ry
     smearing contrib. (-TS)   =       0.00000000 Ry

     iteration #  5     ecut=    40.00 Ry     beta=0.30
     Davidson diagonalization with overlap
     ethr =  9.04E-06,  avg # of iterations =  2.2

     negative rho (up, down):  4.473E-05 0.000E+00

     total cpu time spent up to now is       24.1 secs

          k = 0.0000 0.0000 0.0000     band energies (ev):

   -20.1232 -20.0198  -8.5474  -7.7845  -3.6888  -3.6872  -3.6777  -3.6761
     2.8801   3.2966   3.9011   5.1455

     occupation numbers 
     1.0000   1.0000   1.0000   1.0000   1.0000   1.0000   1.0000   1.0000
     0.0000   0.0000   0.0000   0.0000

          k = 0.0000 0.0962 0.0000     band energies (ev):

   -19.9592 -19.8569  -8.3500  -7.5918  -4.3353  -4.3205  -4.0235  -4.0116
     3.1004   3.5198   4.1266   5.3695

     occupation numbers 
     1.0000   1.0000   1.0000   1.0000   1.0000   1.0000   1.0000   1.0000
     0.0000   0.0000   0.0000   0.0000

          k = 0.0000 0.1925 0.0000     band energies (ev):

   -19.4691 -19.3700  -7.7627  -7.0191  -5.9644  -5.9405  -4.8115  -4.7978
     3.7611   4.1884   4.8029   6.0403

     occupation numbers 
     1.0000   1.0000   1.0000   1.0000   1.0000   1.0000   1.0000   1.0000
     0.0000   0.0000   0.0000   0.0000

          k = 0.0000 0.2887 0.0000     band energies (ev):

   -18.6588 -18.5648  -8.0542  -8.0195  -6.8037  -6.0868  -5.6867  -5.6714
     4.8579   5.2912   5.9261   6.4110

     occupation numbers 
     1.0000   1.0000   1.0000   1.0000   1.0000   1.0000   1.0000   1.0000
     0.0000   0.0000   0.0000   0.0000

          k = 0.0000 0.3849 0.0000     band energies (ev):

   -17.5406 -17.4533 -10.2507 -10.2049  -6.4165  -6.4001  -5.5215  -4.8473
     4.0702   4.5513   6.3640   6.8570

     occupation numbers 
     1.0000   1.0000   1.0000   1.0000   1.0000   1.0000   1.0000   1.0000
     0.0000   0.0000   0.0000   0.0000

          k = 0.0000 0.4811 0.0000     band energies (ev):

   -16.1461 -16.0666 -12.3459 -12.2896  -6.8872  -6.8703  -4.0741  -3.4678
     1.8862   2.4926   6.7862   6.9270

     occupation numbers 
     1.0000   1.0000   1.0000   1.0000   1.0000   1.0000   1.0000   1.0000
     0.0000   0.0000   0.0000   0.0000

          k = 0.0000-0.5774 0.0000     band energies (ev):

   -14.8861 -14.8110 -13.8471 -13.7857  -7.0489  -7.0317  -3.2030  -2.6625
     0.7544   1.4453   6.7088   6.8471

     occupation numbers 
     1.0000   1.0000   1.0000   1.0000   1.0000   1.0000   1.0000   1.0000
     0.0000   0.0000   0.0000   0.0000

          k = 0.0833 0.1443 0.0000     band energies (ev):

   -19.6322 -19.5320  -7.9575  -7.2090  -5.3631  -5.3430  -4.6975  -4.6827
     3.5413   3.9659   4.5777   5.8173

     occupation numbers 
     1.0000   1.0000   1.0000   1.0000   1.0000   1.0000   1.0000   1.0000
     0.0000   0.0000   0.0000   0.0000

          k = 0.0833 0.2406 0.0000     band energies (ev):

   -18.9820 -18.8859  -7.1835  -7.0652  -7.0365  -6.4552  -5.6900  -5.6719
     4.4216   4.8551   5.4795   6.7098

     occupation numbers 
     1.0000   1.0000   1.0000   1.0000   1.0000   1.0000   1.0000   1.0000
     0.0000   0.0000   0.0000   0.0000

          k = 0.0833 0.3368 0.0000     band energies (ev):

   -18.0176 -17.9275  -9.1311  -9.0914  -6.5721  -6.5518  -6.0564  -5.3625
     5.1192   5.5087   5.7343   6.2126

     occupation numbers 
     1.0000   1.0000   1.0000   1.0000   1.0000   1.0000   1.0000   1.0000
     0.0000   0.0000   0.0000   0.0000

          k = 0.0833 0.4330 0.0000     band energies (ev):

   -16.7580 -16.6753 -11.2482 -11.1976  -7.2040  -7.1826  -4.6585  -4.0181
     2.8675   3.3883   7.3868   7.6992

     occupation numbers 
     1.0000   1.0000   1.0000   1.0000   1.0000   1.0000   1.0000   1.0000
     0.0000   0.0000   0.0000   0.0000

          k = 0.0833 0.5292 0.0000     band energies (ev):

   -15.2807 -15.2055 -13.1850 -13.1251  -7.5310  -7.5091  -3.3189  -2.7574
     1.0543   1.6897   7.4342   7.5840

     occupation numbers 
     1.0000   1.0000   1.0000   1.0000   1.0000   1.0000   1.0000   1.0000
     0.0000   0.0000   0.0000   0.0000

          k = 0.1667 0.2887 0.0000     band energies (ev):

   -18.1776 -18.0866  -8.3907  -8.3558  -7.0461  -7.0204  -6.2374  -5.5370
     5.5191   5.5874   5.9381   5.9616

     occupation numbers 
     1.0000   1.0000   1.0000   1.0000   1.0000   1.0000   1.0000   1.0000
     0.0000   0.0000   0.0000   0.0000

          k = 0.1667 0.3849 0.0000     band energies (ev):

   -17.0704 -16.9860 -10.1130 -10.0689  -8.0978  -8.0680  -4.9703  -4.3126
     3.6170   4.0393   7.0396   7.4941

     occupation numbers 
     1.0000   1.0000   1.0000   1.0000   1.0000   1.0000   1.0000   1.0000
     0.0000   0.0000   0.0000   0.0000

          k = 0.1667 0.4811 0.0000     band energies (ev):

   -15.6959 -15.6192 -12.0189 -11.9648  -8.6716  -8.6401  -3.5206  -2.9269
     1.6706   2.1868   8.9208   9.3359

     occupation numbers 
     1.0000   1.0000   1.0000   1.0000   1.0000   1.0000   1.0000   1.0000
     0.0000   0.0000   0.0000   0.0000

          k = 0.1667 0.5774 0.0000     band energies (ev):

   -14.4648 -14.3930 -13.4494 -13.3894  -8.8557  -8.8237  -2.6032  -2.0716
     0.5728   1.1638   9.1905   9.4030

     occupation numbers 
     1.0000   1.0000   1.0000   1.0000   1.0000   1.0000   1.0000   1.0000
     0.0000   0.0000   0.0000   0.0000

          k = 0.2500 0.4330 0.0000     band energies (ev):

   -15.8433 -15.7660 -11.1463 -11.0966  -9.5756  -9.5378  -3.6102  -3.0036
     1.9989   2.4451   8.7429   9.1617

     occupation numbers 
     1.0000   1.0000   1.0000   1.0000   1.0000   1.0000   1.0000   1.0000
     0.0000   0.0000   0.0000   0.0000

          k = 0.2500 0.5292 0.0000     band energies (ev):

   -14.4231 -14.3535 -12.5644 -12.5070 -10.2809 -10.2399  -2.2004  -1.6591
     0.4617   0.9593   9.6738  10.7096

     occupation numbers 
     1.0000   1.0000   1.0000   1.0000   1.0000   1.0000   1.0000   1.0000
     0.0000   0.0000   0.0000   0.0000

          k = 0.3333 0.5774 0.0000     band energies (ev):

   -13.2081 -13.2076 -13.1455 -13.1449 -11.1728 -11.1283  -0.8330  -0.8323
    -0.3305  -0.3298   9.2344  10.9437

     occupation numbers 
     1.0000   1.0000   1.0000   1.0000   1.0000   1.0000   1.0000   1.0000
     0.0000   0.0000   0.0000   0.0000

          k =-0.0833 0.0481 0.0000     band energies (ev):

   -19.9592 -19.8569  -8.3500  -7.5918  -4.3342  -4.3194  -4.0246  -4.0127
     3.1004   3.5198   4.1266   5.3695

     occupation numbers 
     1.0000   1.0000   1.0000   1.0000   1.0000   1.0000   1.0000   1.0000
     0.0000   0.0000   0.0000   0.0000

          k =-0.1667 0.0962 0.0000     band energies (ev):

   -19.4691 -19.3700  -7.7627  -7.0192  -5.9636  -5.9397  -4.8124  -4.7987
     3.7611   4.1884   4.8029   6.0404

     occupation numbers 
     1.0000   1.0000   1.0000   1.0000   1.0000   1.0000   1.0000   1.0000
     0.0000   0.0000   0.0000   0.0000

          k =-0.2500 0.1443 0.0000     band energies (ev):

   -18.6588 -18.5648  -8.0536  -8.0189  -6.8038  -6.0869  -5.6875  -5.6721
     4.8579   5.2911   5.9261   6.4113

     occupation numbers 
     1.0000   1.0000   1.0000   1.0000   1.0000   1.0000   1.0000   1.0000
     0.0000   0.0000   0.0000   0.0000

          k =-0.3333 0.1925 0.0000     band energies (ev):

   -17.5406 -17.4533 -10.2502 -10.2045  -6.4172  -6.4007  -5.5216  -4.8475
     4.0706   4.5517   6.3640   6.8570

     occupation numbers 
     1.0000   1.0000   1.0000   1.0000   1.0000   1.0000   1.0000   1.0000
     0.0000   0.0000   0.0000   0.0000

          k =-0.4167 0.2406 0.0000     band energies (ev):

   -16.1461 -16.0666 -12.3455 -12.2892  -6.8878  -6.8708  -4.0744  -3.4682
     1.8869   2.4933   6.7860   6.9268

     occupation numbers 
     1.0000   1.0000   1.0000   1.0000   1.0000   1.0000   1.0000   1.0000
     0.0000   0.0000   0.0000   0.0000

          k = 0.5000-0.2887 0.0000     band energies (ev):

   -14.8864 -14.8113 -13.8465 -13.7850  -7.0494  -7.0323  -3.2035  -2.6631
     0.7553   1.4463   6.7086   6.8469

     occupation numbers 
     1.0000   1.0000   1.0000   1.0000   1.0000   1.0000   1.0000   1.0000
     0.0000   0.0000   0.0000   0.0000

          k = 0.1667-0.0000 0.0000     band energies (ev):

   -19.6322 -19.5320  -7.9575  -7.2090  -5.3622  -5.3420  -4.6985  -4.6838
     3.5413   3.9659   4.5777   5.8174

     occupation numbers 
     1.0000   1.0000   1.0000   1.0000   1.0000   1.0000   1.0000   1.0000
     0.0000   0.0000   0.0000   0.0000

          k =-0.1667 0.1925 0.0000     band energies (ev):

   -18.9820 -18.8859  -7.1836  -7.0648  -7.0360  -6.4553  -5.6905  -5.6724
     4.4216   4.8551   5.4794   6.7099

     occupation numbers 
     1.0000   1.0000   1.0000   1.0000   1.0000   1.0000   1.0000   1.0000
     0.0000   0.0000   0.0000   0.0000

          k = 0.2500 0.0481 0.0000     band energies (ev):

   -18.9820 -18.8859  -7.1836  -7.0644  -7.0356  -6.4553  -5.6910  -5.6729
     4.4216   4.8551   5.4794   6.7098

     occupation numbers 
     1.0000   1.0000   1.0000   1.0000   1.0000   1.0000   1.0000   1.0000
     0.0000   0.0000   0.0000   0.0000

          k =-0.2500 0.2406 0.0000     band energies (ev):

[...]

     occupation numbers 
     1.0000   1.0000   1.0000   1.0000   1.0000   1.0000   1.0000   1.0000
     0.0000   0.0000   0.0000   0.0000

          k = 0.0000-0.5774 0.0000 (  3052 PWs)   bands (ev):

   -14.7766 -14.7013 -13.7370 -13.6754  -6.9316  -6.9144  -3.1152  -2.5728
     0.8416   1.5336   6.8130   6.9518

     occupation numbers 
     1.0000   1.0000   1.0000   1.0000   1.0000   1.0000   1.0000   1.0000
     0.0000   0.0000   0.0000   0.0000

          k = 0.0833 0.1443 0.0000 (  3051 PWs)   bands (ev):

   -19.5257 -19.4253  -7.8739  -7.1239  -5.2446  -5.2244  -4.5781  -4.5633
     3.5686   3.9879   4.6731   5.8966

     occupation numbers 
     1.0000   1.0000   1.0000   1.0000   1.0000   1.0000   1.0000   1.0000
     0.0000   0.0000   0.0000   0.0000

          k = 0.0833 0.2406 0.0000 (  3045 PWs)   bands (ev):

   -18.8752 -18.7789  -7.0994  -6.9490  -6.9200  -6.3697  -5.5720  -5.5538
     4.4489   4.8767   5.5753   6.7894

     occupation numbers 
     1.0000   1.0000   1.0000   1.0000   1.0000   1.0000   1.0000   1.0000
     0.0000   0.0000   0.0000   0.0000

          k = 0.0833 0.3368 0.0000 (  3033 PWs)   bands (ev):

   -17.9101 -17.8198  -9.0170  -8.9771  -6.4550  -6.4346  -5.9717  -5.2761
     5.2132   5.6003   5.7627   6.2377

     occupation numbers 
     1.0000   1.0000   1.0000   1.0000   1.0000   1.0000   1.0000   1.0000
     0.0000   0.0000   0.0000   0.0000

          k = 0.0833 0.4330 0.0000 (  3041 PWs)   bands (ev):

   -16.6498 -16.5669 -11.1360 -11.0853  -7.0874  -7.0659  -4.5726  -3.9305
     2.9584   3.4803   7.4356   7.7839

     occupation numbers 
     1.0000   1.0000   1.0000   1.0000   1.0000   1.0000   1.0000   1.0000
     0.0000   0.0000   0.0000   0.0000

          k = 0.0833 0.5292 0.0000 (  3043 PWs)   bands (ev):

   -15.1715 -15.0960 -13.0744 -13.0143  -7.4146  -7.3926  -3.2315  -2.6681
     1.1424   1.7791   7.5389   7.6894

     occupation numbers 
     1.0000   1.0000   1.0000   1.0000   1.0000   1.0000   1.0000   1.0000
     0.0000   0.0000   0.0000   0.0000

          k = 0.1667 0.2887 0.0000 (  3039 PWs)   bands (ev):

   -18.0703 -17.9790  -8.2756  -8.2405  -6.9301  -6.9044  -6.1528  -5.4507
     5.5465   5.6832   5.9825   6.0350

     occupation numbers 
     1.0000   1.0000   1.0000   1.0000   1.0000   1.0000   1.0000   1.0000
     0.0000   0.0000   0.0000   0.0000

          k = 0.1667 0.3849 0.0000 (  3045 PWs)   bands (ev):

   -16.9624 -16.8778  -9.9996  -9.9554  -7.9829  -7.9529  -4.8848  -4.2254
     3.7100   4.1336   7.0681   7.5142

     occupation numbers 
     1.0000   1.0000   1.0000   1.0000   1.0000   1.0000   1.0000   1.0000
     0.0000   0.0000   0.0000   0.0000

          k = 0.1667 0.4811 0.0000 (  3041 PWs)   bands (ev):

   -15.5869 -15.5101 -11.9073 -11.8530  -8.5570  -8.5254  -3.4337  -2.8382
     1.7609   2.2785   8.9581   9.4347

     occupation numbers 
     1.0000   1.0000   1.0000   1.0000   1.0000   1.0000   1.0000   1.0000
     0.0000   0.0000   0.0000   0.0000

          k = 0.1667 0.5774 0.0000 (  3008 PWs)   bands (ev):

   -14.3549 -14.2829 -13.3389 -13.2788  -8.7412  -8.7091  -2.5150  -1.9816
     0.6614   1.2538   9.2964   9.5092

     occupation numbers 
     1.0000   1.0000   1.0000   1.0000   1.0000   1.0000   1.0000   1.0000
     0.0000   0.0000   0.0000   0.0000

          k = 0.2500 0.4330 0.0000 (  3033 PWs)   bands (ev):

   -15.7344 -15.6570 -11.0336 -10.9838  -9.4623  -9.4245  -3.5235  -2.9152
     2.0905   2.5382   8.7723   9.1807

     occupation numbers 
     1.0000   1.0000   1.0000   1.0000   1.0000   1.0000   1.0000   1.0000
     0.0000   0.0000   0.0000   0.0000

          k = 0.2500 0.5292 0.0000 (  3013 PWs)   bands (ev):

   -14.3132 -14.2434 -12.4531 -12.3955 -10.1682 -10.1270  -2.1123  -1.5692
     0.5517   1.0509   9.7513  10.7500

     occupation numbers 
     1.0000   1.0000   1.0000   1.0000   1.0000   1.0000   1.0000   1.0000
     0.0000   0.0000   0.0000   0.0000

          k = 0.3333 0.5774 0.0000 (  3027 PWs)   bands (ev):

   -13.0972 -13.0967 -13.0343 -13.0338 -11.0611 -11.0165  -0.7437  -0.7430
    -0.2395  -0.2388   9.3101  10.9910

     occupation numbers 
     1.0000   1.0000   1.0000   1.0000   1.0000   1.0000   1.0000   1.0000
     0.0000   0.0000   0.0000   0.0000

          k =-0.0833 0.0481 0.0000 (  3052 PWs)   bands (ev):

   -19.8529 -19.7504  -8.2666  -7.5069  -4.2142  -4.1993  -3.9040  -3.8920
     3.1277   3.5421   4.2218   5.4486

     occupation numbers 
     1.0000   1.0000   1.0000   1.0000   1.0000   1.0000   1.0000   1.0000
     0.0000   0.0000   0.0000   0.0000

          k =-0.1667 0.0962 0.0000 (  3050 PWs)   bands (ev):

   -19.3626 -19.2632  -7.6790  -6.9340  -5.8460  -5.8221  -4.6930  -4.6792
     3.7885   4.2103   4.8984   6.1196

     occupation numbers 
     1.0000   1.0000   1.0000   1.0000   1.0000   1.0000   1.0000   1.0000
     0.0000   0.0000   0.0000   0.0000

          k =-0.2500 0.1443 0.0000 (  3048 PWs)   bands (ev):

   -18.5518 -18.4575  -7.9385  -7.9037  -6.7195  -6.0011  -5.5691  -5.5536
     4.8854   5.3126   6.0222   6.5067

     occupation numbers 
     1.0000   1.0000   1.0000   1.0000   1.0000   1.0000   1.0000   1.0000
     0.0000   0.0000   0.0000   0.0000

          k =-0.3333 0.1925 0.0000 (  3042 PWs)   bands (ev):

   -17.4328 -17.3454 -10.1372 -10.0913  -6.2994  -6.2829  -5.4364  -4.7606
     4.1628   4.6443   6.3957   6.8832

     occupation numbers 
     1.0000   1.0000   1.0000   1.0000   1.0000   1.0000   1.0000   1.0000
     0.0000   0.0000   0.0000   0.0000

          k =-0.4167 0.2406 0.0000 (  3054 PWs)   bands (ev):

   -16.0375 -15.9577 -12.2342 -12.1777  -6.7704  -6.7534  -3.9879  -3.3799
     1.9759   2.5834   6.8894   7.0314

     occupation numbers 
     1.0000   1.0000   1.0000   1.0000   1.0000   1.0000   1.0000   1.0000
     0.0000   0.0000   0.0000   0.0000

          k = 0.5000-0.2887 0.0000 (  3052 PWs)   bands (ev):

   -14.7769 -14.7016 -13.7363 -13.6747  -6.9322  -6.9150  -3.1158  -2.5734
     0.8425   1.5345   6.8127   6.9515

     occupation numbers 
     1.0000   1.0000   1.0000   1.0000   1.0000   1.0000   1.0000   1.0000
     0.0000   0.0000   0.0000   0.0000

          k = 0.1667-0.0000 0.0000 (  3051 PWs)   bands (ev):

   -19.5257 -19.4253  -7.8740  -7.1239  -5.2436  -5.2234  -4.5792  -4.5644
     3.5686   3.9879   4.6731   5.8966

     occupation numbers 
     1.0000   1.0000   1.0000   1.0000   1.0000   1.0000   1.0000   1.0000
     0.0000   0.0000   0.0000   0.0000

          k =-0.1667 0.1925 0.0000 (  3045 PWs)   bands (ev):

   -18.8751 -18.7789  -7.0994  -6.9485  -6.9196  -6.3697  -5.5725  -5.5543
     4.4489   4.8766   5.5753   6.7894

     occupation numbers 
     1.0000   1.0000   1.0000   1.0000   1.0000   1.0000   1.0000   1.0000
     0.0000   0.0000   0.0000   0.0000

          k = 0.2500 0.0481 0.0000 (  3045 PWs)   bands (ev):

   -18.8751 -18.7789  -7.0995  -6.9481  -6.9191  -6.3697  -5.5730  -5.5548
     4.4489   4.8766   5.5753   6.7894

     occupation numbers 
     1.0000   1.0000   1.0000   1.0000   1.0000   1.0000   1.0000   1.0000
     0.0000   0.0000   0.0000   0.0000

          k =-0.2500 0.2406 0.0000 (  3033 PWs)   bands (ev):

   -17.9101 -17.8198  -9.0165  -8.9767  -6.4555  -6.4352  -5.9718  -5.2762
     5.2135   5.6005   5.7627   6.2378

     occupation numbers 
     1.0000   1.0000   1.0000   1.0000   1.0000   1.0000   1.0000   1.0000
     0.0000   0.0000   0.0000   0.0000

          k = 0.3333 0.0962 0.0000 (  3033 PWs)   bands (ev):

   -17.9101 -17.8198  -9.0164  -8.9765  -6.4557  -6.4354  -5.9718  -5.2763
     5.2136   5.6007   5.7627   6.2378

     occupation numbers 
     1.0000   1.0000   1.0000   1.0000   1.0000   1.0000   1.0000   1.0000
     0.0000   0.0000   0.0000   0.0000

          k =-0.3333 0.2887 0.0000 (  3041 PWs)   bands (ev):

   -16.6498 -16.5669 -11.1357 -11.0849  -7.0879  -7.0665  -4.5728  -3.9307
     2.9589   3.4808   7.4356   7.7837

     occupation numbers 
     1.0000   1.0000   1.0000   1.0000   1.0000   1.0000   1.0000   1.0000
     0.0000   0.0000   0.0000   0.0000

          k = 0.4167 0.1443 0.0000 (  3041 PWs)   bands (ev):

   -16.6498 -16.5668 -11.1356 -11.0848  -7.0880  -7.0665  -4.5728  -3.9307
     2.9590   3.4810   7.4355   7.7837

     occupation numbers 
     1.0000   1.0000   1.0000   1.0000   1.0000   1.0000   1.0000   1.0000
     0.0000   0.0000   0.0000   0.0000

          k =-0.4167 0.3368 0.0000 (  3043 PWs)   bands (ev):

   -15.1716 -15.0961 -13.0739 -13.0138  -7.4151  -7.3931  -3.2319  -2.6686
     1.1432   1.7799   7.5387   7.6891

     occupation numbers 
     1.0000   1.0000   1.0000   1.0000   1.0000   1.0000   1.0000   1.0000
     0.0000   0.0000   0.0000   0.0000

          k = 0.5000 0.1925 0.0000 (  3043 PWs)   bands (ev):

   -15.1716 -15.0961 -13.0739 -13.0138  -7.4152  -7.3931  -3.2320  -2.6687
     1.1432   1.7800   7.5386   7.6891

     occupation numbers 
     1.0000   1.0000   1.0000   1.0000   1.0000   1.0000   1.0000   1.0000
     0.0000   0.0000   0.0000   0.0000

          k = 0.3333-0.0000 0.0000 (  3039 PWs)   bands (ev):

   -18.0703 -17.9790  -8.2748  -8.2397  -6.9309  -6.9052  -6.1529  -5.4508
     5.5466   5.6835   5.9825   6.0354

     occupation numbers 
     1.0000   1.0000   1.0000   1.0000   1.0000   1.0000   1.0000   1.0000
     0.0000   0.0000   0.0000   0.0000

          k =-0.2500 0.3368 0.0000 (  3045 PWs)   bands (ev):

   -16.9624 -16.8778  -9.9993  -9.9551  -7.9832  -7.9533  -4.8848  -4.2255
     3.7101   4.1338   7.0681   7.5142

     occupation numbers 
     1.0000   1.0000   1.0000   1.0000   1.0000   1.0000   1.0000   1.0000
     0.0000   0.0000   0.0000   0.0000

          k = 0.4167 0.0481 0.0000 (  3045 PWs)   bands (ev):

   -16.9624 -16.8777  -9.9990  -9.9547  -7.9836  -7.9537  -4.8849  -4.2256
     3.7105   4.1341   7.0681   7.5142

     occupation numbers 
     1.0000   1.0000   1.0000   1.0000   1.0000   1.0000   1.0000   1.0000
     0.0000   0.0000   0.0000   0.0000

          k =-0.3333 0.3849 0.0000 (  3041 PWs)   bands (ev):

   -15.5870 -15.5101 -11.9069 -11.8526  -8.5574  -8.5258  -3.4339  -2.8384
     1.7614   2.2790   8.9581   9.4344

     occupation numbers 
     1.0000   1.0000   1.0000   1.0000   1.0000   1.0000   1.0000   1.0000
     0.0000   0.0000   0.0000   0.0000

          k = 0.5000 0.0962 0.0000 (  3041 PWs)   bands (ev):

   -15.5869 -15.5101 -11.9068 -11.8525  -8.5576  -8.5259  -3.4341  -2.8386
     1.7616   2.2792   8.9580   9.4344

     occupation numbers 
     1.0000   1.0000   1.0000   1.0000   1.0000   1.0000   1.0000   1.0000
     0.0000   0.0000   0.0000   0.0000

          k =-0.4167 0.4330 0.0000 (  3008 PWs)   bands (ev):

   -14.3553 -14.2832 -13.3382 -13.2780  -8.7417  -8.7096  -2.5156  -1.9822
     0.6622   1.2547   9.2961   9.5089

     occupation numbers 
     1.0000   1.0000   1.0000   1.0000   1.0000   1.0000   1.0000   1.0000
     0.0000   0.0000   0.0000   0.0000

          k = 0.5000 0.0000 0.0000 (  3033 PWs)   bands (ev):

   -15.7344 -15.6570 -11.0331 -10.9832  -9.4629  -9.4251  -3.5237  -2.9154
     2.0910   2.5387   8.7723   9.1807

     occupation numbers 
     1.0000   1.0000   1.0000   1.0000   1.0000   1.0000   1.0000   1.0000
     0.0000   0.0000   0.0000   0.0000

          k =-0.3333 0.4811 0.0000 (  3013 PWs)   bands (ev):

   -14.3133 -14.2435 -12.4527 -12.3951 -10.1685 -10.1274  -2.1126  -1.5695
     0.5521   1.0513   9.7511  10.7500

     occupation numbers 
     1.0000   1.0000   1.0000   1.0000   1.0000   1.0000   1.0000   1.0000
     0.0000   0.0000   0.0000   0.0000

          k = 0.5833 0.0481 0.0000 (  3013 PWs)   bands (ev):

   -14.3133 -14.2435 -12.4525 -12.3949 -10.1687 -10.1275  -2.1128  -1.5697
     0.5524   1.0516   9.7510  10.7498

     occupation numbers 
     1.0000   1.0000   1.0000   1.0000   1.0000   1.0000   1.0000   1.0000
     0.0000   0.0000   0.0000   0.0000

     the Fermi energy is    -0.6363 ev

!    total energy              =     -45.57866058 Ry
     Harris-Foulkes estimate   =     -45.57866058 Ry
     estimated scf accuracy    <          2.4E-11 Ry

     The total energy is the sum of the following terms:

     one-electron contribution =    -520.05717579 Ry
     hartree contribution      =     263.50248072 Ry
     xc contribution           =     -14.03041486 Ry
     ewald contribution        =     225.00644935 Ry
     smearing contrib. (-TS)   =       0.00000000 Ry

     convergence has been achieved in  11 iterations

     Forces acting on atoms (Ry/au):

     atom    1 type  1   force =     0.00000000   -0.00011461   -0.00187123
     atom    2 type  1   force =     0.00000000    0.00011462   -0.00187121
     atom    3 type  1   force =     0.00000000   -0.00011465    0.00187121
     atom    4 type  1   force =     0.00000000    0.00011464    0.00187123
     The non-local contrib.  to forces
     atom    1 type  1   force =     0.00000000   -0.00003903   -0.00119593
     atom    2 type  1   force =     0.00000000    0.00003906   -0.00119596
     atom    3 type  1   force =     0.00000000   -0.00003908    0.00118539
     atom    4 type  1   force =     0.00000000    0.00003906    0.00118538
     The ionic contribution  to forces
     atom    1 type  1   force =     0.00000000   -0.00037336  -13.84074850
     atom    2 type  1   force =     0.00000000    0.00037336  -13.84074850
     atom    3 type  1   force =     0.00000000   -0.00037336   13.84074850
     atom    4 type  1   force =    -0.00000000    0.00037336   13.84074850
     The local contribution  to forces
     atom    1 type  1   force =     0.00000000    0.00029774   13.84006156
     atom    2 type  1   force =    -0.00000000   -0.00029773   13.84006168
     atom    3 type  1   force =    -0.00000000    0.00029762  -13.84006028
     atom    4 type  1   force =    -0.00000000   -0.00029765  -13.84006022
     The core correction contribution to forces
     atom    1 type  1   force =     0.00000000    0.00000000    0.00000000
     atom    2 type  1   force =     0.00000000    0.00000000    0.00000000
     atom    3 type  1   force =     0.00000000    0.00000000    0.00000000
     atom    4 type  1   force =     0.00000000    0.00000000    0.00000000
     The Hubbard contrib.    to forces
     atom    1 type  1   force =     0.00000000    0.00000000    0.00000000
     atom    2 type  1   force =     0.00000000    0.00000000    0.00000000
     atom    3 type  1   force =     0.00000000    0.00000000    0.00000000
     atom    4 type  1   force =     0.00000000    0.00000000    0.00000000
     The SCF correction term to forces
     atom    1 type  1   force =    -0.00000000    0.00000005    0.00000610
     atom    2 type  1   force =     0.00000000   -0.00000006    0.00000602
     atom    3 type  1   force =     0.00000000    0.00000018   -0.00000795
     atom    4 type  1   force =     0.00000000   -0.00000012   -0.00000798

     Total force =     0.003749     Total SCF correction =     0.000014


     entering subroutine stress ...

          total   stress  (Ry/bohr**3)                   (kbar)     P=   -5.04
  -0.00006584   0.00000000   0.00000000         -9.69      0.00      0.00
   0.00000000  -0.00006556   0.00000000          0.00     -9.64      0.00
   0.00000000   0.00000000   0.00002869          0.00      0.00      4.22

     kinetic stress (kbar)   3525.16     -0.00      0.00
                               -0.00   3525.04      0.00
                                0.00      0.00   4088.12

     local   stress (kbar)-111296.81      0.00     -0.00
                                0.00-111297.49     -0.00
                               -0.00     -0.00 113617.88

     nonloc. stress (kbar)   -152.55      0.00      0.00
                                0.00   -152.53      0.00
                                0.00      0.00   -151.51

     hartree stress (kbar)  54127.61     -0.00     -0.00
                               -0.00  54127.70      0.00
                               -0.00      0.00 -53782.98

     exc-cor stress (kbar)   -891.21      0.00     -0.00
                                0.00   -891.21     -0.00
                               -0.00     -0.00   -924.60

     corecor stress (kbar)      0.00      0.00      0.00
                                0.00      0.00      0.00
                                0.00      0.00      0.00

     ewald   stress (kbar)  54678.12      0.00     -0.00
                                0.00  54678.84      0.00
                               -0.00      0.00 -62842.69

     hubbard stress (kbar)      0.00      0.00      0.00
                                0.00      0.00      0.00
                                0.00      0.00      0.00

     london  stress (kbar)      0.00      0.00      0.00
                                0.00      0.00      0.00
                                0.00      0.00      0.00

     XDM     stress (kbar)      0.00      0.00      0.00
                                0.00      0.00      0.00
                                0.00      0.00      0.00

     dft-nl  stress (kbar)      0.00      0.00      0.00
                                0.00      0.00      0.00
                                0.00      0.00      0.00



     Writing output data file graphene.save

     init_run     :      1.66s CPU      1.72s WALL (       1 calls)
     electrons    :     42.61s CPU     42.91s WALL (       1 calls)
     forces       :      0.81s CPU      0.81s WALL (       1 calls)
     stress       :      1.84s CPU      1.85s WALL (       1 calls)

     Called by init_run:
     wfcinit      :      1.01s CPU      1.04s WALL (       1 calls)
     potinit      :      0.23s CPU      0.23s WALL (       1 calls)

     Called by electrons:
     c_bands      :     31.42s CPU     31.56s WALL (      11 calls)
     sum_band     :      6.90s CPU      6.97s WALL (      11 calls)
     v_of_rho     :      1.88s CPU      1.95s WALL (      12 calls)
     v_h          :      0.11s CPU      0.11s WALL (      12 calls)
     v_xc         :      1.77s CPU      1.84s WALL (      12 calls)
     newd         :      2.30s CPU      2.31s WALL (      12 calls)
     mix_rho      :      0.23s CPU      0.24s WALL (      11 calls)

     Called by c_bands:
     init_us_2    :      0.85s CPU      0.85s WALL (    1075 calls)
     cegterg      :     30.15s CPU     30.28s WALL (     473 calls)

     Called by sum_band:
     sum_band:bec :      0.00s CPU      0.00s WALL (     473 calls)
     addusdens    :      1.77s CPU      1.81s WALL (      11 calls)

     Called by *egterg:
     h_psi        :     19.69s CPU     19.81s WALL (    1849 calls)
     s_psi        :      2.87s CPU      2.87s WALL (    1849 calls)
     g_psi        :      0.13s CPU      0.13s WALL (    1333 calls)
     cdiaghg      :      0.56s CPU      0.57s WALL (    1806 calls)
     cegterg:over :      3.09s CPU      3.10s WALL (    1333 calls)
     cegterg:upda :      2.00s CPU      2.00s WALL (    1333 calls)
     cegterg:last :      1.12s CPU      1.13s WALL (     482 calls)

     Called by h_psi:
     h_psi:vloc   :     13.48s CPU     13.58s WALL (    1849 calls)
     h_psi:vnl    :      6.08s CPU      6.10s WALL (    1849 calls)
     add_vuspsi   :      2.84s CPU      2.85s WALL (    1849 calls)

     General routines
     calbec       :      4.53s CPU      4.55s WALL (    2408 calls)
     fft          :      1.47s CPU      1.49s WALL (     196 calls)
     ffts         :      0.02s CPU      0.02s WALL (      23 calls)
     fftw         :     10.97s CPU     11.04s WALL (   36332 calls)
     interpolate  :      0.22s CPU      0.22s WALL (      23 calls)

     Parallel routines
     fft_scatter  :      2.19s CPU      2.20s WALL (   36551 calls)

     PWSCF        :    47.05s CPU        47.46s WALL


   This run was terminated on:  13:26:28   4Apr2020            

=------------------------------------------------------------------------------=
   JOB DONE.
=------------------------------------------------------------------------------=
