
     Program BANDS v.5.1 starts on 16Apr2020 at 11:33:17 

     This program is part of the open-source Quantum ESPRESSO suite
     for quantum simulation of materials; please cite
         "P. Giannozzi et al., J. Phys.:Condens. Matter 21 395502 (2009);
          URL http://www.quantum-espresso.org", 
     in publications or presentations arising from this work. More details at
     http://www.quantum-espresso.org/quote

     Parallel version (MPI), running on     1 processors

   Info: using nr1, nr2, nr3 values from input

   Info: using nr1s, nr2s, nr3s values from input

     IMPORTANT: XC functional enforced from input :
     Exchange-correlation      = PBE ( 1  4  3  4 0)
     Any further DFT definition will be discarded
     Please, verify this is what you really want

               file C.pbe-rrkjus.UPF: wavefunction(s)  2S 2P renormalized

     G-vector sticks info
     --------------------
     sticks:   dense  smooth     PW     G-vecs:    dense   smooth      PW
     Sum         595     241     85                96043    24369    4587


     negative rho (up, down):  1.604E-06 0.000E+00

 **************************************************************************

                    xk=(  -0.33333,   0.57735,   0.00000  )

     point group C_1 (1)    
     there are  1 classes
     the character table:

       E    
A      1.00

     the symmetry operations in each class:
     E        1

     Band symmetry, C_1 (1)     point group:

     e(  1 -  1) =    -13.09601  eV     1   --> A              
     e(  2 -  2) =    -13.09202  eV     1   --> A              
     e(  3 -  3) =    -13.03873  eV     1   --> A              
     e(  4 -  4) =    -13.03317  eV     1   --> A              
     e(  5 -  5) =    -11.05710  eV     1   --> A              
     e(  6 -  6) =    -11.01938  eV     1   --> A              
     e(  7 -  7) =     -0.74146  eV     1   --> A              
     e(  8 -  8) =     -0.70665  eV     1   --> A              
     e(  9 -  9) =     -0.27999  eV     1   --> A              
     e( 10 - 10) =     -0.23816  eV     1   --> A              
     e( 11 - 11) =      9.42195  eV     1   --> A              
     e( 12 - 12) =     10.83176  eV     1   --> A              

 **************************************************************************

 **************************************************************************

                    xk=(  -0.32667,   0.56580,   0.00000  )

     Band symmetry, C_1 (1)     point group:

     e(  1 -  1) =    -13.24424  eV     1   --> A              
     e(  2 -  2) =    -13.18519  eV     1   --> A              
     e(  3 -  3) =    -12.95477  eV     1   --> A              
     e(  4 -  4) =    -12.90364  eV     1   --> A              
     e(  5 -  5) =    -11.03654  eV     1   --> A              
     e(  6 -  6) =    -10.99930  eV     1   --> A              
     e(  7 -  7) =     -0.92019  eV     1   --> A              
     e(  8 -  8) =     -0.56022  eV     1   --> A              
     e(  9 -  9) =     -0.39845  eV     1   --> A              
     e( 10 - 10) =     -0.08983  eV     1   --> A              
     e( 11 - 11) =      9.43113  eV     1   --> A              
     e( 12 - 12) =     10.83511  eV     1   --> A              

 **************************************************************************

 **************************************************************************

                    xk=(  -0.32000,   0.55426,   0.00000  )

     Band symmetry, C_1 (1)     point group:

     e(  1 -  1) =    -13.42231  eV     1   --> A              
     e(  2 -  2) =    -13.36122  eV     1   --> A              
     e(  3 -  3) =    -12.81376  eV     1   --> A              
     e(  4 -  4) =    -12.76334  eV     1   --> A              
     e(  5 -  5) =    -10.98088  eV     1   --> A              
     e(  6 -  6) =    -10.94402  eV     1   --> A              
     e(  7 -  7) =     -1.11977  eV     1   --> A              
     e(  8 -  8) =     -0.65494  eV     1   --> A              
     e(  9 -  9) =     -0.30012  eV     1   --> A              
     e( 10 - 10) =      0.10029  eV     1   --> A              
     e( 11 - 11) =      9.45693  eV     1   --> A              
     e( 12 - 12) =     10.84083  eV     1   --> A              

 **************************************************************************

 **************************************************************************

                    xk=(  -0.31333,   0.54271,   0.00000  )

     Band symmetry, C_1 (1)     point group:

     e(  1 -  1) =    -13.62016  eV     1   --> A              
     e(  2 -  2) =    -13.55725  eV     1   --> A              
     e(  3 -  3) =    -12.66746  eV     1   --> A              
     e(  4 -  4) =    -12.61784  eV     1   --> A              
     e(  5 -  5) =    -10.89764  eV     1   --> A              
     e(  6 -  6) =    -10.86115  eV     1   --> A              
     e(  7 -  7) =     -1.32879  eV     1   --> A              
     e(  8 -  8) =     -0.84618  eV     1   --> A              
     e(  9 -  9) =     -0.10568  eV     1   --> A              
     e( 10 - 10) =      0.29867  eV     1   --> A              
     e( 11 - 11) =      9.49769  eV     1   --> A              
     e( 12 - 12) =     10.84243  eV     1   --> A              

 **************************************************************************

 **************************************************************************

                    xk=(  -0.30667,   0.53116,   0.00000  )

     Band symmetry, C_1 (1)     point group:

     e(  1 -  1) =    -13.83128  eV     1   --> A              
     e(  2 -  2) =    -13.76667  eV     1   --> A              
     e(  3 -  3) =    -12.51600  eV     1   --> A              
     e(  4 -  4) =    -12.46720  eV     1   --> A              
     e(  5 -  5) =    -10.79303  eV     1   --> A              
     e(  6 -  6) =    -10.75691  eV     1   --> A              
     e(  7 -  7) =     -1.54521  eV     1   --> A              
     e(  8 -  8) =     -1.04956  eV     1   --> A              
     e(  9 -  9) =      0.10139  eV     1   --> A              
     e( 10 - 10) =      0.50416  eV     1   --> A              
     e( 11 - 11) =      9.55139  eV     1   --> A              
     e( 12 - 12) =     10.82978  eV     1   --> A              

 **************************************************************************

 **************************************************************************

                    xk=(  -0.30000,   0.51962,   0.00000  )

     Band symmetry, C_1 (1)     point group:

     e(  1 -  1) =    -14.05085  eV     1   --> A              
     e(  2 -  2) =    -13.98464  eV     1   --> A              
     e(  3 -  3) =    -12.35951  eV     1   --> A              
     e(  4 -  4) =    -12.31154  eV     1   --> A              
     e(  5 -  5) =    -10.67181  eV     1   --> A              
     e(  6 -  6) =    -10.63612  eV     1   --> A              
     e(  7 -  7) =     -1.76760  eV     1   --> A              
     e(  8 -  8) =     -1.25954  eV     1   --> A              
     e(  9 -  9) =      0.31633  eV     1   --> A              
     e( 10 - 10) =      0.71628  eV     1   --> A              
     e( 11 - 11) =      9.61550  eV     1   --> A              
     e( 12 - 12) =     10.78835  eV     1   --> A              

 **************************************************************************

 **************************************************************************

                    xk=(  -0.29333,   0.50807,   0.00000  )

     Band symmetry, C_1 (1)     point group:

     e(  1 -  1) =    -14.27541  eV     1   --> A              
     e(  2 -  2) =    -14.20765  eV     1   --> A              
     e(  3 -  3) =    -12.19798  eV     1   --> A              
     e(  4 -  4) =    -12.15087  eV     1   --> A              
     e(  5 -  5) =    -10.53731  eV     1   --> A              
     e(  6 -  6) =    -10.50210  eV     1   --> A              
     e(  7 -  7) =     -1.99472  eV     1   --> A              
     e(  8 -  8) =     -1.47436  eV     1   --> A              
     e(  9 -  9) =      0.53818  eV     1   --> A              
     e( 10 - 10) =      0.93479  eV     1   --> A              
     e( 11 - 11) =      9.68688  eV     1   --> A              
     e( 12 - 12) =     10.69835  eV     1   --> A              

 **************************************************************************

 **************************************************************************

                    xk=(  -0.28667,   0.49652,   0.00000  )

     Band symmetry, C_1 (1)     point group:

     e(  1 -  1) =    -14.50237  eV     1   --> A              
     e(  2 -  2) =    -14.43313  eV     1   --> A              
     e(  3 -  3) =    -12.03146  eV     1   --> A              
     e(  4 -  4) =    -11.98521  eV     1   --> A              
     e(  5 -  5) =    -10.39190  eV     1   --> A              
     e(  6 -  6) =    -10.35722  eV     1   --> A              
     e(  7 -  7) =     -2.22545  eV     1   --> A              
     e(  8 -  8) =     -1.69282  eV     1   --> A              
     e(  9 -  9) =      0.76655  eV     1   --> A              
     e( 10 - 10) =      1.15949  eV     1   --> A              
     e( 11 - 11) =      9.76134  eV     1   --> A              
     e( 12 - 12) =     10.47509  eV     1   --> A              

 **************************************************************************

 **************************************************************************

                    xk=(  -0.28000,   0.48497,   0.00000  )

     Band symmetry, C_1 (1)     point group:

     e(  1 -  1) =    -14.73003  eV     1   --> A              
     e(  2 -  2) =    -14.65933  eV     1   --> A              
     e(  3 -  3) =    -11.85999  eV     1   --> A              
     e(  4 -  4) =    -11.81463  eV     1   --> A              
     e(  5 -  5) =    -10.23739  eV     1   --> A              
     e(  6 -  6) =    -10.20332  eV     1   --> A              
     e(  7 -  7) =     -2.45880  eV     1   --> A              
     e(  8 -  8) =     -1.91399  eV     1   --> A              
     e(  9 -  9) =      1.00118  eV     1   --> A              
     e( 10 - 10) =      1.39025  eV     1   --> A              
     e( 11 - 11) =      9.83263  eV     1   --> A              
     e( 12 - 12) =     10.16706  eV     1   --> A              

 **************************************************************************

 **************************************************************************

                    xk=(  -0.27333,   0.47343,   0.00000  )

     Band symmetry, C_1 (1)     point group:

     e(  1 -  1) =    -14.95697  eV     1   --> A              
     e(  2 -  2) =    -14.88487  eV     1   --> A              
     e(  3 -  3) =    -11.68366  eV     1   --> A              
     e(  4 -  4) =    -11.63921  eV     1   --> A              
     e(  5 -  5) =    -10.07504  eV     1   --> A              
     e(  6 -  6) =    -10.04162  eV     1   --> A              
     e(  7 -  7) =     -2.69374  eV     1   --> A              
     e(  8 -  8) =     -2.13694  eV     1   --> A              
     e(  9 -  9) =      1.24183  eV     1   --> A              
     e( 10 - 10) =      1.62676  eV     1   --> A              
     e( 11 - 11) =      9.85332  eV     1   --> A              
     e( 12 - 12) =      9.88719  eV     1   --> A              

 **************************************************************************

 **************************************************************************

                    xk=(  -0.26667,   0.46188,   0.00000  )

     Band symmetry, C_1 (1)     point group:

     e(  1 -  1) =    -15.18225  eV     1   --> A              
     e(  2 -  2) =    -15.10876  eV     1   --> A              
     e(  3 -  3) =    -11.50251  eV     1   --> A              
     e(  4 -  4) =    -11.45894  eV     1   --> A              
     e(  5 -  5) =     -9.90593  eV     1   --> A              
     e(  6 -  6) =     -9.87316  eV     1   --> A              
     e(  7 -  7) =     -2.92947  eV     1   --> A              
     e(  8 -  8) =     -2.36091  eV     1   --> A              
     e(  9 -  9) =      1.48834  eV     1   --> A              
     e( 10 - 10) =      1.86890  eV     1   --> A              
     e( 11 - 11) =      9.54134  eV     1   --> A              
     e( 12 - 12) =      9.82834  eV     1   --> A              

 **************************************************************************

 **************************************************************************

                    xk=(  -0.26000,   0.45033,   0.00000  )

     Band symmetry, C_1 (1)     point group:

     e(  1 -  1) =    -15.40509  eV     1   --> A              
     e(  2 -  2) =    -15.33026  eV     1   --> A              
     e(  3 -  3) =    -11.31660  eV     1   --> A              
     e(  4 -  4) =    -11.27395  eV     1   --> A              
     e(  5 -  5) =     -9.73081  eV     1   --> A              
     e(  6 -  6) =     -9.69876  eV     1   --> A              
     e(  7 -  7) =     -3.16514  eV     1   --> A              
     e(  8 -  8) =     -2.58514  eV     1   --> A              
     e(  9 -  9) =      1.74049  eV     1   --> A              
     e( 10 - 10) =      2.11647  eV     1   --> A              
     e( 11 - 11) =      9.23144  eV     1   --> A              
     e( 12 - 12) =      9.58642  eV     1   --> A              

 **************************************************************************

 **************************************************************************

                    xk=(  -0.25333,   0.43879,   0.00000  )

     Band symmetry, C_1 (1)     point group:

     e(  1 -  1) =    -15.62489  eV     1   --> A              
     e(  2 -  2) =    -15.54873  eV     1   --> A              
     e(  3 -  3) =    -11.12598  eV     1   --> A              
     e(  4 -  4) =    -11.08427  eV     1   --> A              
     e(  5 -  5) =     -9.55035  eV     1   --> A              
     e(  6 -  6) =     -9.51902  eV     1   --> A              
     e(  7 -  7) =     -3.40005  eV     1   --> A              
     e(  8 -  8) =     -2.80895  eV     1   --> A              
     e(  9 -  9) =      1.99806  eV     1   --> A              
     e( 10 - 10) =      2.36924  eV     1   --> A              
     e( 11 - 11) =      8.92550  eV     1   --> A              
     e( 12 - 12) =      9.31098  eV     1   --> A              

 **************************************************************************

 **************************************************************************

                    xk=(  -0.24667,   0.42724,   0.00000  )

     Band symmetry, C_1 (1)     point group:

     e(  1 -  1) =    -15.84116  eV     1   --> A              
     e(  2 -  2) =    -15.76370  eV     1   --> A              
     e(  3 -  3) =    -10.93075  eV     1   --> A              
     e(  4 -  4) =    -10.88998  eV     1   --> A              
     e(  5 -  5) =     -9.36506  eV     1   --> A              
     e(  6 -  6) =     -9.33450  eV     1   --> A              
     e(  7 -  7) =     -3.63348  eV     1   --> A              
     e(  8 -  8) =     -3.03167  eV     1   --> A              
     e(  9 -  9) =      2.26087  eV     1   --> A              
     e( 10 - 10) =      2.62703  eV     1   --> A              
     e( 11 - 11) =      8.62450  eV     1   --> A              
     e( 12 - 12) =      9.02886  eV     1   --> A              

 **************************************************************************

 **************************************************************************

                    xk=(  -0.24000,   0.41569,   0.00000  )

     Band symmetry, C_1 (1)     point group:

     e(  1 -  1) =    -16.05355  eV     1   --> A              
     e(  2 -  2) =    -15.97483  eV     1   --> A              
     e(  3 -  3) =    -10.73103  eV     1   --> A              
     e(  4 -  4) =    -10.69121  eV     1   --> A              
     e(  5 -  5) =     -9.17551  eV     1   --> A              
     e(  6 -  6) =     -9.14573  eV     1   --> A              
     e(  7 -  7) =     -3.86488  eV     1   --> A              
     e(  8 -  8) =     -3.25275  eV     1   --> A              
     e(  9 -  9) =      2.52868  eV     1   --> A              
     e( 10 - 10) =      2.88957  eV     1   --> A              
     e( 11 - 11) =      8.32915  eV     1   --> A              
     e( 12 - 12) =      8.74601  eV     1   --> A              

 **************************************************************************

 **************************************************************************

                    xk=(  -0.23333,   0.40415,   0.00000  )

     Band symmetry, C_1 (1)     point group:

     e(  1 -  1) =    -16.26172  eV     1   --> A              
     e(  2 -  2) =    -16.18175  eV     1   --> A              
     e(  3 -  3) =    -10.52684  eV     1   --> A              
     e(  4 -  4) =    -10.48800  eV     1   --> A              
     e(  5 -  5) =     -8.98209  eV     1   --> A              
     e(  6 -  6) =     -8.95313  eV     1   --> A              
     e(  7 -  7) =     -4.09369  eV     1   --> A              
     e(  8 -  8) =     -3.47167  eV     1   --> A              
     e(  9 -  9) =      2.80122  eV     1   --> A              
     e( 10 - 10) =      3.15663  eV     1   --> A              
     e( 11 - 11) =      8.03998  eV     1   --> A              
     e( 12 - 12) =      8.46528  eV     1   --> A              

 **************************************************************************

 **************************************************************************

                    xk=(  -0.22667,   0.39260,   0.00000  )

     Band symmetry, C_1 (1)     point group:

     e(  1 -  1) =    -16.46542  eV     1   --> A              
     e(  2 -  2) =    -16.38425  eV     1   --> A              
     e(  3 -  3) =    -10.31837  eV     1   --> A              
     e(  4 -  4) =    -10.28050  eV     1   --> A              
     e(  5 -  5) =     -8.78526  eV     1   --> A              
     e(  6 -  6) =     -8.75713  eV     1   --> A              
     e(  7 -  7) =     -4.31941  eV     1   --> A              
     e(  8 -  8) =     -3.68791  eV     1   --> A              
     e(  9 -  9) =      3.07824  eV     1   --> A              
     e( 10 - 10) =      3.42790  eV     1   --> A              
     e( 11 - 11) =      7.75742  eV     1   --> A              
     e( 12 - 12) =      8.18841  eV     1   --> A              

 **************************************************************************

 **************************************************************************

                    xk=(  -0.22000,   0.38105,   0.00000  )

     Band symmetry, C_1 (1)     point group:

     e(  1 -  1) =    -16.66443  eV     1   --> A              
     e(  2 -  2) =    -16.58206  eV     1   --> A              
     e(  3 -  3) =    -10.10566  eV     1   --> A              
     e(  4 -  4) =    -10.06877  eV     1   --> A              
     e(  5 -  5) =     -8.58542  eV     1   --> A              
     e(  6 -  6) =     -8.55812  eV     1   --> A              
     e(  7 -  7) =     -4.54158  eV     1   --> A              
     e(  8 -  8) =     -3.90103  eV     1   --> A              
     e(  9 -  9) =      3.35946  eV     1   --> A              
     e( 10 - 10) =      3.70314  eV     1   --> A              
     e( 11 - 11) =      7.48177  eV     1   --> A              
     e( 12 - 12) =      7.91653  eV     1   --> A              

 **************************************************************************

 **************************************************************************

                    xk=(  -0.21333,   0.36950,   0.00000  )

     Band symmetry, C_1 (1)     point group:

     e(  1 -  1) =    -16.85855  eV     1   --> A              
     e(  2 -  2) =    -16.77500  eV     1   --> A              
     e(  3 -  3) =     -9.88891  eV     1   --> A              
     e(  4 -  4) =     -9.85300  eV     1   --> A              
     e(  5 -  5) =     -8.38294  eV     1   --> A              
     e(  6 -  6) =     -8.35650  eV     1   --> A              
     e(  7 -  7) =     -4.75980  eV     1   --> A              
     e(  8 -  8) =     -4.11062  eV     1   --> A              
     e(  9 -  9) =      3.64454  eV     1   --> A              
     e( 10 - 10) =      3.98197  eV     1   --> A              
     e( 11 - 11) =      7.21331  eV     1   --> A              
     e( 12 - 12) =      7.65045  eV     1   --> A              

 **************************************************************************

 **************************************************************************

                    xk=(  -0.20667,   0.35796,   0.00000  )

     Band symmetry, C_1 (1)     point group:

     e(  1 -  1) =    -17.04764  eV     1   --> A              
     e(  2 -  2) =    -16.96295  eV     1   --> A              
     e(  3 -  3) =     -9.66819  eV     1   --> A              
     e(  4 -  4) =     -9.63326  eV     1   --> A              
     e(  5 -  5) =     -8.17822  eV     1   --> A              
     e(  6 -  6) =     -8.15266  eV     1   --> A              
     e(  7 -  7) =     -4.97372  eV     1   --> A              
     e(  8 -  8) =     -4.31634  eV     1   --> A              
     e(  9 -  9) =      3.93315  eV     1   --> A              
     e( 10 - 10) =      4.26406  eV     1   --> A              
     e( 11 - 11) =      6.95223  eV     1   --> A              
     e( 12 - 12) =      7.39075  eV     1   --> A              

 **************************************************************************

 **************************************************************************

                    xk=(  -0.20000,   0.34641,   0.00000  )

     Band symmetry, C_1 (1)     point group:

     e(  1 -  1) =    -17.23155  eV     1   --> A              
     e(  2 -  2) =    -17.14574  eV     1   --> A              
     e(  3 -  3) =     -9.44376  eV     1   --> A              
     e(  4 -  4) =     -9.40977  eV     1   --> A              
     e(  5 -  5) =     -7.97171  eV     1   --> A              
     e(  6 -  6) =     -7.94702  eV     1   --> A              
     e(  7 -  7) =     -5.18299  eV     1   --> A              
     e(  8 -  8) =     -4.51780  eV     1   --> A              
     e(  9 -  9) =      4.22488  eV     1   --> A              
     e( 10 - 10) =      4.54900  eV     1   --> A              
     e( 11 - 11) =      6.69871  eV     1   --> A              
     e( 12 - 12) =      7.13787  eV     1   --> A              

 **************************************************************************

 **************************************************************************

                    xk=(  -0.19333,   0.33486,   0.00000  )

     Band symmetry, C_1 (1)     point group:

     e(  1 -  1) =    -17.41015  eV     1   --> A              
     e(  2 -  2) =    -17.32324  eV     1   --> A              
     e(  3 -  3) =     -9.21576  eV     1   --> A              
     e(  4 -  4) =     -9.18276  eV     1   --> A              
     e(  5 -  5) =     -7.76380  eV     1   --> A              
     e(  6 -  6) =     -7.73999  eV     1   --> A              
     e(  7 -  7) =     -5.38730  eV     1   --> A              
     e(  8 -  8) =     -4.71471  eV     1   --> A              
     e(  9 -  9) =      4.51938  eV     1   --> A              
     e( 10 - 10) =      4.83642  eV     1   --> A              
     e( 11 - 11) =      6.45290  eV     1   --> A              
     e( 12 - 12) =      6.89213  eV     1   --> A              

 **************************************************************************

 **************************************************************************

                    xk=(  -0.18667,   0.32332,   0.00000  )

     Band symmetry, C_1 (1)     point group:

     e(  1 -  1) =    -17.58333  eV     1   --> A              
     e(  2 -  2) =    -17.49536  eV     1   --> A              
     e(  3 -  3) =     -8.98438  eV     1   --> A              
     e(  4 -  4) =     -8.95233  eV     1   --> A              
     e(  5 -  5) =     -7.55492  eV     1   --> A              
     e(  6 -  6) =     -7.53201  eV     1   --> A              
     e(  7 -  7) =     -5.58637  eV     1   --> A              
     e(  8 -  8) =     -4.90676  eV     1   --> A              
     e(  9 -  9) =      4.81617  eV     1   --> A              
     e( 10 - 10) =      5.12585  eV     1   --> A              
     e( 11 - 11) =      6.21491  eV     1   --> A              
     e( 12 - 12) =      6.65380  eV     1   --> A              

 **************************************************************************

 **************************************************************************

                    xk=(  -0.18000,   0.31177,   0.00000  )

     Band symmetry, C_1 (1)     point group:

     e(  1 -  1) =    -17.75101  eV     1   --> A              
     e(  2 -  2) =    -17.66201  eV     1   --> A              
     e(  3 -  3) =     -8.74981  eV     1   --> A              
     e(  4 -  4) =     -8.71877  eV     1   --> A              
     e(  5 -  5) =     -7.34547  eV     1   --> A              
     e(  6 -  6) =     -7.32346  eV     1   --> A              
     e(  7 -  7) =     -5.78002  eV     1   --> A              
     e(  8 -  8) =     -5.09376  eV     1   --> A              
     e(  9 -  9) =      5.11478  eV     1   --> A              
     e( 10 - 10) =      5.41679  eV     1   --> A              
     e( 11 - 11) =      5.98485  eV     1   --> A              
     e( 12 - 12) =      6.42308  eV     1   --> A              

 **************************************************************************

 **************************************************************************

                    xk=(  -0.17333,   0.30022,   0.00000  )

     Band symmetry, C_1 (1)     point group:

     e(  1 -  1) =    -17.91309  eV     1   --> A              
     e(  2 -  2) =    -17.82309  eV     1   --> A              
     e(  3 -  3) =     -8.51225  eV     1   --> A              
     e(  4 -  4) =     -8.48226  eV     1   --> A              
     e(  5 -  5) =     -7.13589  eV     1   --> A              
     e(  6 -  6) =     -7.11480  eV     1   --> A              
     e(  7 -  7) =     -5.96795  eV     1   --> A              
     e(  8 -  8) =     -5.27541  eV     1   --> A              
     e(  9 -  9) =      5.41471  eV     1   --> A              
     e( 10 - 10) =      5.70826  eV     1   --> A              
     e( 11 - 11) =      5.76332  eV     1   --> A              
     e( 12 - 12) =      6.20015  eV     1   --> A              

 **************************************************************************

 **************************************************************************

                    xk=(  -0.16667,   0.28868,   0.00000  )

     Band symmetry, C_1 (1)     point group:

     e(  1 -  1) =    -18.06950  eV     1   --> A              
     e(  2 -  2) =    -17.97854  eV     1   --> A              
     e(  3 -  3) =     -8.27219  eV     1   --> A              
     e(  4 -  4) =     -8.24316  eV     1   --> A              
     e(  5 -  5) =     -6.92678  eV     1   --> A              
     e(  6 -  6) =     -6.90659  eV     1   --> A              
     e(  7 -  7) =     -6.15001  eV     1   --> A              
     e(  8 -  8) =     -5.45153  eV     1   --> A              
     e(  9 -  9) =      5.54857  eV     1   --> A              
     e( 10 - 10) =      5.71525  eV     1   --> A              
     e( 11 - 11) =      5.98455  eV     1   --> A              
     e( 12 - 12) =      6.00209  eV     1   --> A              

 **************************************************************************

 **************************************************************************

                    xk=(  -0.16000,   0.27713,   0.00000  )

     Band symmetry, C_1 (1)     point group:

     e(  1 -  1) =    -18.22017  eV     1   --> A              
     e(  2 -  2) =    -18.12828  eV     1   --> A              
     e(  3 -  3) =     -8.02987  eV     1   --> A              
     e(  4 -  4) =     -8.00184  eV     1   --> A              
     e(  5 -  5) =     -6.71861  eV     1   --> A              
     e(  6 -  6) =     -6.69928  eV     1   --> A              
     e(  7 -  7) =     -6.32595  eV     1   --> A              
     e(  8 -  8) =     -5.62191  eV     1   --> A              
     e(  9 -  9) =      5.34273  eV     1   --> A              
     e( 10 - 10) =      5.77755  eV     1   --> A              
     e( 11 - 11) =      6.01660  eV     1   --> A              
     e( 12 - 12) =      6.29367  eV     1   --> A              

 **************************************************************************

 **************************************************************************

                    xk=(  -0.15333,   0.26558,   0.00000  )

     Band symmetry, C_1 (1)     point group:

     e(  1 -  1) =    -18.36506  eV     1   --> A              
     e(  2 -  2) =    -18.27225  eV     1   --> A              
     e(  3 -  3) =     -7.78562  eV     1   --> A              
     e(  4 -  4) =     -7.75859  eV     1   --> A              
     e(  5 -  5) =     -6.51491  eV     1   --> A              
     e(  6 -  6) =     -6.49367  eV     1   --> A              
     e(  7 -  7) =     -6.49231  eV     1   --> A              
     e(  8 -  8) =     -5.78640  eV     1   --> A              
     e(  9 -  9) =      5.14502  eV     1   --> A              
     e( 10 - 10) =      5.57878  eV     1   --> A              
     e( 11 - 11) =      6.31661  eV     1   --> A              
     e( 12 - 12) =      6.32829  eV     1   --> A              

 **************************************************************************

 **************************************************************************

                    xk=(  -0.14667,   0.25403,   0.00000  )

     Band symmetry, C_1 (1)     point group:

     e(  1 -  1) =    -18.50408  eV     1   --> A              
     e(  2 -  2) =    -18.41041  eV     1   --> A              
     e(  3 -  3) =     -7.53982  eV     1   --> A              
     e(  4 -  4) =     -7.51379  eV     1   --> A              
     e(  5 -  5) =     -6.65948  eV     1   --> A              
     e(  6 -  6) =     -6.30654  eV     1   --> A              
     e(  7 -  7) =     -6.28945  eV     1   --> A              
     e(  8 -  8) =     -5.94474  eV     1   --> A              
     e(  9 -  9) =      4.95553  eV     1   --> A              
     e( 10 - 10) =      5.38801  eV     1   --> A              
     e( 11 - 11) =      6.13363  eV     1   --> A              
     e( 12 - 12) =      6.61561  eV     1   --> A              

 **************************************************************************

 **************************************************************************

                    xk=(  -0.14000,   0.24249,   0.00000  )

     Band symmetry, C_1 (1)     point group:

     e(  1 -  1) =    -18.63719  eV     1   --> A              
     e(  2 -  2) =    -18.54268  eV     1   --> A              
     e(  3 -  3) =     -7.29295  eV     1   --> A              
     e(  4 -  4) =     -7.26794  eV     1   --> A              
     e(  5 -  5) =     -6.81627  eV     1   --> A              
     e(  6 -  6) =     -6.10436  eV     1   --> A              
     e(  7 -  7) =     -6.10067  eV     1   --> A              
     e(  8 -  8) =     -6.08418  eV     1   --> A              
     e(  9 -  9) =      4.77430  eV     1   --> A              
     e( 10 - 10) =      5.20543  eV     1   --> A              
     e( 11 - 11) =      5.94758  eV     1   --> A              
     e( 12 - 12) =      6.91246  eV     1   --> A              

 **************************************************************************

 **************************************************************************

                    xk=(  -0.13333,   0.23094,   0.00000  )

     Band symmetry, C_1 (1)     point group:

     e(  1 -  1) =    -18.76435  eV     1   --> A              
     e(  2 -  2) =    -18.66905  eV     1   --> A              
     e(  3 -  3) =     -7.04551  eV     1   --> A              
     e(  4 -  4) =     -7.02169  eV     1   --> A              
     e(  5 -  5) =     -6.96630  eV     1   --> A              
     e(  6 -  6) =     -6.24305  eV     1   --> A              
     e(  7 -  7) =     -5.90505  eV     1   --> A              
     e(  8 -  8) =     -5.88940  eV     1   --> A              
     e(  9 -  9) =      4.60137  eV     1   --> A              
     e( 10 - 10) =      5.03113  eV     1   --> A              
     e( 11 - 11) =      5.77012  eV     1   --> A              
     e( 12 - 12) =      6.97379  eV     1   --> A              

 **************************************************************************

 **************************************************************************

                    xk=(  -0.12667,   0.21939,   0.00000  )

     Band symmetry, C_1 (1)     point group:

     e(  1 -  1) =    -18.88554  eV     1   --> A              
     e(  2 -  2) =    -18.78948  eV     1   --> A              
     e(  3 -  3) =     -7.11006  eV     1   --> A              
     e(  4 -  4) =     -6.79807  eV     1   --> A              
     e(  5 -  5) =     -6.77502  eV     1   --> A              
     e(  6 -  6) =     -6.38236  eV     1   --> A              
     e(  7 -  7) =     -5.70957  eV     1   --> A              
     e(  8 -  8) =     -5.69484  eV     1   --> A              
     e(  9 -  9) =      4.43677  eV     1   --> A              
     e( 10 - 10) =      4.86515  eV     1   --> A              
     e( 11 - 11) =      5.60127  eV     1   --> A              
     e( 12 - 12) =      6.80672  eV     1   --> A              

 **************************************************************************

 **************************************************************************

                    xk=(  -0.12000,   0.20785,   0.00000  )

     Band symmetry, C_1 (1)     point group:

     e(  1 -  1) =    -19.00069  eV     1   --> A              
     e(  2 -  2) =    -18.90389  eV     1   --> A              
     e(  3 -  3) =     -7.24668  eV     1   --> A              
     e(  4 -  4) =     -6.55145  eV     1   --> A              
     e(  5 -  5) =     -6.52927  eV     1   --> A              
     e(  6 -  6) =     -6.51484  eV     1   --> A              
     e(  7 -  7) =     -5.51842  eV     1   --> A              
     e(  8 -  8) =     -5.50456  eV     1   --> A              
     e(  9 -  9) =      4.28052  eV     1   --> A              
     e( 10 - 10) =      4.70754  eV     1   --> A              
     e( 11 - 11) =      5.44105  eV     1   --> A              
     e( 12 - 12) =      6.64804  eV     1   --> A              

 **************************************************************************

 **************************************************************************

                    xk=(  -0.11333,   0.19630,   0.00000  )

     Band symmetry, C_1 (1)     point group:

     e(  1 -  1) =    -19.10978  eV     1   --> A              
     e(  2 -  2) =    -19.01229  eV     1   --> A              
     e(  3 -  3) =     -7.37636  eV     1   --> A              
     e(  4 -  4) =     -6.64126  eV     1   --> A              
     e(  5 -  5) =     -6.30573  eV     1   --> A              
     e(  6 -  6) =     -6.28477  eV     1   --> A              
     e(  7 -  7) =     -5.33231  eV     1   --> A              
     e(  8 -  8) =     -5.31930  eV     1   --> A              
     e(  9 -  9) =      4.13264  eV     1   --> A              
     e( 10 - 10) =      4.55832  eV     1   --> A              
     e( 11 - 11) =      5.28947  eV     1   --> A              
     e( 12 - 12) =      6.49784  eV     1   --> A              

 **************************************************************************

 **************************************************************************

                    xk=(  -0.10667,   0.18475,   0.00000  )

     Band symmetry, C_1 (1)     point group:

     e(  1 -  1) =    -19.21278  eV     1   --> A              
     e(  2 -  2) =    -19.11463  eV     1   --> A              
     e(  3 -  3) =     -7.49904  eV     1   --> A              
     e(  4 -  4) =     -6.76056  eV     1   --> A              
     e(  5 -  5) =     -6.06248  eV     1   --> A              
     e(  6 -  6) =     -6.04252  eV     1   --> A              
     e(  7 -  7) =     -5.15189  eV     1   --> A              
     e(  8 -  8) =     -5.13970  eV     1   --> A              
     e(  9 -  9) =      3.99316  eV     1   --> A              
     e( 10 - 10) =      4.41752  eV     1   --> A              
     e( 11 - 11) =      5.14653  eV     1   --> A              
     e( 12 - 12) =      6.35616  eV     1   --> A              

 **************************************************************************

 **************************************************************************

                    xk=(  -0.10000,   0.17321,   0.00000  )

     Band symmetry, C_1 (1)     point group:

     e(  1 -  1) =    -19.30967  eV     1   --> A              
     e(  2 -  2) =    -19.21090  eV     1   --> A              
     e(  3 -  3) =     -7.61463  eV     1   --> A              
     e(  4 -  4) =     -6.87304  eV     1   --> A              
     e(  5 -  5) =     -5.82235  eV     1   --> A              
     e(  6 -  6) =     -5.80338  eV     1   --> A              
     e(  7 -  7) =     -4.97786  eV     1   --> A              
     e(  8 -  8) =     -4.96645  eV     1   --> A              
     e(  9 -  9) =      3.86208  eV     1   --> A              
     e( 10 - 10) =      4.28517  eV     1   --> A              
     e( 11 - 11) =      5.01224  eV     1   --> A              
     e( 12 - 12) =      6.22302  eV     1   --> A              

 **************************************************************************

 **************************************************************************

                    xk=(  -0.09333,   0.16166,   0.00000  )

     Band symmetry, C_1 (1)     point group:

     e(  1 -  1) =    -19.40041  eV     1   --> A              
     e(  2 -  2) =    -19.30106  eV     1   --> A              
     e(  3 -  3) =     -7.72306  eV     1   --> A              
     e(  4 -  4) =     -6.97857  eV     1   --> A              
     e(  5 -  5) =     -5.58627  eV     1   --> A              
     e(  6 -  6) =     -5.56831  eV     1   --> A              
     e(  7 -  7) =     -4.81084  eV     1   --> A              
     e(  8 -  8) =     -4.80020  eV     1   --> A              
     e(  9 -  9) =      3.73943  eV     1   --> A              
     e( 10 - 10) =      4.16129  eV     1   --> A              
     e( 11 - 11) =      4.88660  eV     1   --> A              
     e( 12 - 12) =      6.09842  eV     1   --> A              

 **************************************************************************

 **************************************************************************

                    xk=(  -0.08667,   0.15011,   0.00000  )

     Band symmetry, C_1 (1)     point group:

     e(  1 -  1) =    -19.48497  eV     1   --> A              
     e(  2 -  2) =    -19.38508  eV     1   --> A              
     e(  3 -  3) =     -7.82421  eV     1   --> A              
     e(  4 -  4) =     -7.07706  eV     1   --> A              
     e(  5 -  5) =     -5.35547  eV     1   --> A              
     e(  6 -  6) =     -5.33852  eV     1   --> A              
     e(  7 -  7) =     -4.65160  eV     1   --> A              
     e(  8 -  8) =     -4.64167  eV     1   --> A              
     e(  9 -  9) =      3.62522  eV     1   --> A              
     e( 10 - 10) =      4.04589  eV     1   --> A              
     e( 11 - 11) =      4.76963  eV     1   --> A              
     e( 12 - 12) =      5.98239  eV     1   --> A              

 **************************************************************************

 **************************************************************************

                    xk=(  -0.08000,   0.13856,   0.00000  )

     Band symmetry, C_1 (1)     point group:

     e(  1 -  1) =    -19.56335  eV     1   --> A              
     e(  2 -  2) =    -19.46295  eV     1   --> A              
     e(  3 -  3) =     -7.91807  eV     1   --> A              
     e(  4 -  4) =     -7.16848  eV     1   --> A              
     e(  5 -  5) =     -5.13125  eV     1   --> A              
     e(  6 -  6) =     -5.11529  eV     1   --> A              
     e(  7 -  7) =     -4.50078  eV     1   --> A              
     e(  8 -  8) =     -4.49152  eV     1   --> A              
     e(  9 -  9) =      3.51946  eV     1   --> A              
     e( 10 - 10) =      3.93900  eV     1   --> A              
     e( 11 - 11) =      4.66132  eV     1   --> A              
     e( 12 - 12) =      5.87493  eV     1   --> A              

 **************************************************************************

 **************************************************************************

                    xk=(  -0.07333,   0.12702,   0.00000  )

     Band symmetry, C_1 (1)     point group:

     e(  1 -  1) =    -19.63552  eV     1   --> A              
     e(  2 -  2) =    -19.53466  eV     1   --> A              
     e(  3 -  3) =     -8.00461  eV     1   --> A              
     e(  4 -  4) =     -7.25280  eV     1   --> A              
     e(  5 -  5) =     -4.91503  eV     1   --> A              
     e(  6 -  6) =     -4.90004  eV     1   --> A              
     e(  7 -  7) =     -4.35908  eV     1   --> A              
     e(  8 -  8) =     -4.35045  eV     1   --> A              
     e(  9 -  9) =      3.42214  eV     1   --> A              
     e( 10 - 10) =      3.84063  eV     1   --> A              
     e( 11 - 11) =      4.56168  eV     1   --> A              
     e( 12 - 12) =      5.77605  eV     1   --> A              

 **************************************************************************

 **************************************************************************

                    xk=(  -0.06667,   0.11547,   0.00000  )

     Band symmetry, C_1 (1)     point group:

     e(  1 -  1) =    -19.70148  eV     1   --> A              
     e(  2 -  2) =    -19.60019  eV     1   --> A              
     e(  3 -  3) =     -8.08377  eV     1   --> A              
     e(  4 -  4) =     -7.32994  eV     1   --> A              
     e(  5 -  5) =     -4.70827  eV     1   --> A              
     e(  6 -  6) =     -4.69427  eV     1   --> A              
     e(  7 -  7) =     -4.22712  eV     1   --> A              
     e(  8 -  8) =     -4.21909  eV     1   --> A              
     e(  9 -  9) =      3.33329  eV     1   --> A              
     e( 10 - 10) =      3.75078  eV     1   --> A              
     e( 11 - 11) =      4.47071  eV     1   --> A              
     e( 12 - 12) =      5.68576  eV     1   --> A              

 **************************************************************************

 **************************************************************************

                    xk=(  -0.06000,   0.10392,   0.00000  )

     Band symmetry, C_1 (1)     point group:

     e(  1 -  1) =    -19.76120  eV     1   --> A              
     e(  2 -  2) =    -19.65952  eV     1   --> A              
     e(  3 -  3) =     -8.15550  eV     1   --> A              
     e(  4 -  4) =     -7.39988  eV     1   --> A              
     e(  5 -  5) =     -4.51280  eV     1   --> A              
     e(  6 -  6) =     -4.49976  eV     1   --> A              
     e(  7 -  7) =     -4.10558  eV     1   --> A              
     e(  8 -  8) =     -4.09808  eV     1   --> A              
     e(  9 -  9) =      3.25290  eV     1   --> A              
     e( 10 - 10) =      3.66946  eV     1   --> A              
     e( 11 - 11) =      4.38841  eV     1   --> A              
     e( 12 - 12) =      5.60406  eV     1   --> A              

 **************************************************************************

 **************************************************************************

                    xk=(  -0.05333,   0.09238,   0.00000  )

     Band symmetry, C_1 (1)     point group:

     e(  1 -  1) =    -19.81466  eV     1   --> A              
     e(  2 -  2) =    -19.71263  eV     1   --> A              
     e(  3 -  3) =     -8.21977  eV     1   --> A              
     e(  4 -  4) =     -7.46254  eV     1   --> A              
     e(  5 -  5) =     -4.33035  eV     1   --> A              
     e(  6 -  6) =     -4.31824  eV     1   --> A              
     e(  7 -  7) =     -3.99505  eV     1   --> A              
     e(  8 -  8) =     -3.98803  eV     1   --> A              
     e(  9 -  9) =      3.18097  eV     1   --> A              
     e( 10 - 10) =      3.59669  eV     1   --> A              
     e( 11 - 11) =      4.31477  eV     1   --> A              
     e( 12 - 12) =      5.53095  eV     1   --> A              

 **************************************************************************

 **************************************************************************

                    xk=(  -0.04667,   0.08083,   0.00000  )

     Band symmetry, C_1 (1)     point group:

     e(  1 -  1) =    -19.86186  eV     1   --> A              
     e(  2 -  2) =    -19.75952  eV     1   --> A              
     e(  3 -  3) =     -8.27655  eV     1   --> A              
     e(  4 -  4) =     -7.51793  eV     1   --> A              
     e(  5 -  5) =     -4.16282  eV     1   --> A              
     e(  6 -  6) =     -4.15161  eV     1   --> A              
     e(  7 -  7) =     -3.89607  eV     1   --> A              
     e(  8 -  8) =     -3.88948  eV     1   --> A              
     e(  9 -  9) =      3.11751  eV     1   --> A              
     e( 10 - 10) =      3.53247  eV     1   --> A              
     e( 11 - 11) =      4.24980  eV     1   --> A              
     e( 12 - 12) =      5.46644  eV     1   --> A              

 **************************************************************************

 **************************************************************************

                    xk=(  -0.04000,   0.06928,   0.00000  )

     Band symmetry, C_1 (1)     point group:

     e(  1 -  1) =    -19.90279  eV     1   --> A              
     e(  2 -  2) =    -19.80019  eV     1   --> A              
     e(  3 -  3) =     -8.32582  eV     1   --> A              
     e(  4 -  4) =     -7.56599  eV     1   --> A              
     e(  5 -  5) =     -4.01231  eV     1   --> A              
     e(  6 -  6) =     -4.00190  eV     1   --> A              
     e(  7 -  7) =     -3.80920  eV     1   --> A              
     e(  8 -  8) =     -3.80298  eV     1   --> A              
     e(  9 -  9) =      3.06252  eV     1   --> A              
     e( 10 - 10) =      3.47680  eV     1   --> A              
     e( 11 - 11) =      4.19350  eV     1   --> A              
     e( 12 - 12) =      5.41053  eV     1   --> A              

 **************************************************************************

 **************************************************************************

                    xk=(  -0.03333,   0.05774,   0.00000  )

     Band symmetry, C_1 (1)     point group:

     e(  1 -  1) =    -19.93743  eV     1   --> A              
     e(  2 -  2) =    -19.83460  eV     1   --> A              
     e(  3 -  3) =     -8.36753  eV     1   --> A              
     e(  4 -  4) =     -7.60668  eV     1   --> A              
     e(  5 -  5) =     -3.88065  eV     1   --> A              
     e(  6 -  6) =     -3.87106  eV     1   --> A              
     e(  7 -  7) =     -3.73486  eV     1   --> A              
     e(  8 -  8) =     -3.72897  eV     1   --> A              
     e(  9 -  9) =      3.01598  eV     1   --> A              
     e( 10 - 10) =      3.42970  eV     1   --> A              
     e( 11 - 11) =      4.14586  eV     1   --> A              
     e( 12 - 12) =      5.36322  eV     1   --> A              

 **************************************************************************

 **************************************************************************

                    xk=(  -0.02667,   0.04619,   0.00000  )

     Band symmetry, C_1 (1)     point group:

     e(  1 -  1) =    -19.96579  eV     1   --> A              
     e(  2 -  2) =    -19.86277  eV     1   --> A              
     e(  3 -  3) =     -8.40169  eV     1   --> A              
     e(  4 -  4) =     -7.64001  eV     1   --> A              
     e(  5 -  5) =     -3.76983  eV     1   --> A              
     e(  6 -  6) =     -3.76092  eV     1   --> A              
     e(  7 -  7) =     -3.67347  eV     1   --> A              
     e(  8 -  8) =     -3.66782  eV     1   --> A              
     e(  9 -  9) =      2.97792  eV     1   --> A              
     e( 10 - 10) =      3.39115  eV     1   --> A              
     e( 11 - 11) =      4.10688  eV     1   --> A              
     e( 12 - 12) =      5.32451  eV     1   --> A              

 **************************************************************************

 **************************************************************************

                    xk=(  -0.02000,   0.03464,   0.00000  )

     Band symmetry, C_1 (1)     point group:

     e(  1 -  1) =    -19.98785  eV     1   --> A              
     e(  2 -  2) =    -19.88468  eV     1   --> A              
     e(  3 -  3) =     -8.42826  eV     1   --> A              
     e(  4 -  4) =     -7.66594  eV     1   --> A              
     e(  5 -  5) =     -3.68156  eV     1   --> A              
     e(  6 -  6) =     -3.67321  eV     1   --> A              
     e(  7 -  7) =     -3.62536  eV     1   --> A              
     e(  8 -  8) =     -3.61993  eV     1   --> A              
     e(  9 -  9) =      2.94831  eV     1   --> A              
     e( 10 - 10) =      3.36117  eV     1   --> A              
     e( 11 - 11) =      4.07657  eV     1   --> A              
     e( 12 - 12) =      5.29440  eV     1   --> A              

 **************************************************************************

 **************************************************************************

                    xk=(  -0.01333,   0.02309,   0.00000  )

     Band symmetry, C_1 (1)     point group:

     e(  1 -  1) =    -20.00361  eV     1   --> A              
     e(  2 -  2) =    -19.90034  eV     1   --> A              
     e(  3 -  3) =     -8.44726  eV     1   --> A              
     e(  4 -  4) =     -7.68448  eV     1   --> A              
     e(  5 -  5) =     -3.61739  eV     1   --> A              
     e(  6 -  6) =     -3.60938  eV     1   --> A              
     e(  7 -  7) =     -3.59073  eV     1   --> A              
     e(  8 -  8) =     -3.58550  eV     1   --> A              
     e(  9 -  9) =      2.92717  eV     1   --> A              
     e( 10 - 10) =      3.33975  eV     1   --> A              
     e( 11 - 11) =      4.05492  eV     1   --> A              
     e( 12 - 12) =      5.27290  eV     1   --> A              

 **************************************************************************

 **************************************************************************

                    xk=(  -0.00667,   0.01155,   0.00000  )

     Band symmetry, C_1 (1)     point group:

     e(  1 -  1) =    -20.01306  eV     1   --> A              
     e(  2 -  2) =    -19.90973  eV     1   --> A              
     e(  3 -  3) =     -8.45865  eV     1   --> A              
     e(  4 -  4) =     -7.69559  eV     1   --> A              
     e(  5 -  5) =     -3.57863  eV     1   --> A              
     e(  6 -  6) =     -3.57069  eV     1   --> A              
     e(  7 -  7) =     -3.56961  eV     1   --> A              
     e(  8 -  8) =     -3.56477  eV     1   --> A              
     e(  9 -  9) =      2.91448  eV     1   --> A              
     e( 10 - 10) =      3.32690  eV     1   --> A              
     e( 11 - 11) =      4.04193  eV     1   --> A              
     e( 12 - 12) =      5.26000  eV     1   --> A              

 **************************************************************************

 **************************************************************************

                    xk=(   0.00000,   0.00000,   0.00000  )

     Band symmetry, C_1 (1)     point group:

     e(  1 -  1) =    -20.01621  eV     1   --> A              
     e(  2 -  2) =    -19.91286  eV     1   --> A              
     e(  3 -  3) =     -8.46245  eV     1   --> A              
     e(  4 -  4) =     -7.69929  eV     1   --> A              
     e(  5 -  5) =     -3.56615  eV     1   --> A              
     e(  6 -  6) =     -3.56208  eV     1   --> A              
     e(  7 -  7) =     -3.55800  eV     1   --> A              
     e(  8 -  8) =     -3.55741  eV     1   --> A              
     e(  9 -  9) =      2.91025  eV     1   --> A              
     e( 10 - 10) =      3.32262  eV     1   --> A              
     e( 11 - 11) =      4.03760  eV     1   --> A              
     e( 12 - 12) =      5.25570  eV     1   --> A              

 **************************************************************************

 **************************************************************************

                    xk=(   0.00000,   0.01155,   0.00000  )

     Band symmetry, C_1 (1)     point group:

     e(  1 -  1) =    -20.01385  eV     1   --> A              
     e(  2 -  2) =    -19.91051  eV     1   --> A              
     e(  3 -  3) =     -8.45960  eV     1   --> A              
     e(  4 -  4) =     -7.69652  eV     1   --> A              
     e(  5 -  5) =     -3.57602  eV     1   --> A              
     e(  6 -  6) =     -3.56748  eV     1   --> A              
     e(  7 -  7) =     -3.56704  eV     1   --> A              
     e(  8 -  8) =     -3.56322  eV     1   --> A              
     e(  9 -  9) =      2.91342  eV     1   --> A              
     e( 10 - 10) =      3.32583  eV     1   --> A              
     e( 11 - 11) =      4.04085  eV     1   --> A              
     e( 12 - 12) =      5.25892  eV     1   --> A              

 **************************************************************************

 **************************************************************************

                    xk=(   0.00000,   0.02309,   0.00000  )

     Band symmetry, C_1 (1)     point group:

     e(  1 -  1) =    -20.00676  eV     1   --> A              
     e(  2 -  2) =    -19.90347  eV     1   --> A              
     e(  3 -  3) =     -8.45106  eV     1   --> A              
     e(  4 -  4) =     -7.68818  eV     1   --> A              
     e(  5 -  5) =     -3.60538  eV     1   --> A              
     e(  6 -  6) =     -3.59642  eV     1   --> A              
     e(  7 -  7) =     -3.58285  eV     1   --> A              
     e(  8 -  8) =     -3.57875  eV     1   --> A              
     e(  9 -  9) =      2.92294  eV     1   --> A              
     e( 10 - 10) =      3.33547  eV     1   --> A              
     e( 11 - 11) =      4.05059  eV     1   --> A              
     e( 12 - 12) =      5.26860  eV     1   --> A              

 **************************************************************************

 **************************************************************************

                    xk=(   0.00000,   0.03464,   0.00000  )

     Band symmetry, C_1 (1)     point group:

     e(  1 -  1) =    -19.99494  eV     1   --> A              
     e(  2 -  2) =    -19.89173  eV     1   --> A              
     e(  3 -  3) =     -8.43681  eV     1   --> A              
     e(  4 -  4) =     -7.67428  eV     1   --> A              
     e(  5 -  5) =     -3.65401  eV     1   --> A              
     e(  6 -  6) =     -3.64480  eV     1   --> A              
     e(  7 -  7) =     -3.60850  eV     1   --> A              
     e(  8 -  8) =     -3.60437  eV     1   --> A              
     e(  9 -  9) =      2.93880  eV     1   --> A              
     e( 10 - 10) =      3.35153  eV     1   --> A              
     e( 11 - 11) =      4.06683  eV     1   --> A              
     e( 12 - 12) =      5.28473  eV     1   --> A              

 **************************************************************************

 **************************************************************************

                    xk=(   0.00000,   0.04619,   0.00000  )

     Band symmetry, C_1 (1)     point group:

     e(  1 -  1) =    -19.97839  eV     1   --> A              
     e(  2 -  2) =    -19.87529  eV     1   --> A              
     e(  3 -  3) =     -8.41688  eV     1   --> A              
     e(  4 -  4) =     -7.65481  eV     1   --> A              
     e(  5 -  5) =     -3.72146  eV     1   --> A              
     e(  6 -  6) =     -3.71185  eV     1   --> A              
     e(  7 -  7) =     -3.64399  eV     1   --> A              
     e(  8 -  8) =     -3.63983  eV     1   --> A              
     e(  9 -  9) =      2.96100  eV     1   --> A              
     e( 10 - 10) =      3.37402  eV     1   --> A              
     e( 11 - 11) =      4.08956  eV     1   --> A              
     e( 12 - 12) =      5.30731  eV     1   --> A              

 **************************************************************************

 **************************************************************************

                    xk=(   0.00000,   0.05774,   0.00000  )

     Band symmetry, C_1 (1)     point group:

     e(  1 -  1) =    -19.95712  eV     1   --> A              
     e(  2 -  2) =    -19.85416  eV     1   --> A              
     e(  3 -  3) =     -8.39124  eV     1   --> A              
     e(  4 -  4) =     -7.62980  eV     1   --> A              
     e(  5 -  5) =     -3.80713  eV     1   --> A              
     e(  6 -  6) =     -3.79693  eV     1   --> A              
     e(  7 -  7) =     -3.68886  eV     1   --> A              
     e(  8 -  8) =     -3.68463  eV     1   --> A              
     e(  9 -  9) =      2.98955  eV     1   --> A              
     e( 10 - 10) =      3.40293  eV     1   --> A              
     e( 11 - 11) =      4.11879  eV     1   --> A              
     e( 12 - 12) =      5.33634  eV     1   --> A              

 **************************************************************************

 **************************************************************************

                    xk=(   0.00000,   0.06928,   0.00000  )

     Band symmetry, C_1 (1)     point group:

     e(  1 -  1) =    -19.93113  eV     1   --> A              
     e(  2 -  2) =    -19.82834  eV     1   --> A              
     e(  3 -  3) =     -8.35995  eV     1   --> A              
     e(  4 -  4) =     -7.59925  eV     1   --> A              
     e(  5 -  5) =     -3.91028  eV     1   --> A              
     e(  6 -  6) =     -3.89942  eV     1   --> A              
     e(  7 -  7) =     -3.74258  eV     1   --> A              
     e(  8 -  8) =     -3.73830  eV     1   --> A              
     e(  9 -  9) =      3.02444  eV     1   --> A              
     e( 10 - 10) =      3.43827  eV     1   --> A              
     e( 11 - 11) =      4.15452  eV     1   --> A              
     e( 12 - 12) =      5.37182  eV     1   --> A              

 **************************************************************************

 **************************************************************************

                    xk=(   0.00000,   0.08083,   0.00000  )

     Band symmetry, C_1 (1)     point group:

     e(  1 -  1) =    -19.90043  eV     1   --> A              
     e(  2 -  2) =    -19.79783  eV     1   --> A              
     e(  3 -  3) =     -8.32296  eV     1   --> A              
     e(  4 -  4) =     -7.56319  eV     1   --> A              
     e(  5 -  5) =     -4.03001  eV     1   --> A              
     e(  6 -  6) =     -4.01843  eV     1   --> A              
     e(  7 -  7) =     -3.80454  eV     1   --> A              
     e(  8 -  8) =     -3.80019  eV     1   --> A              
     e(  9 -  9) =      3.06568  eV     1   --> A              
     e( 10 - 10) =      3.48002  eV     1   --> A              
     e( 11 - 11) =      4.19674  eV     1   --> A              
     e( 12 - 12) =      5.41375  eV     1   --> A              

 **************************************************************************

 **************************************************************************

                    xk=(   0.00000,   0.09238,   0.00000  )

     Band symmetry, C_1 (1)     point group:

     e(  1 -  1) =    -19.86501  eV     1   --> A              
     e(  2 -  2) =    -19.76264  eV     1   --> A              
     e(  3 -  3) =     -8.28034  eV     1   --> A              
     e(  4 -  4) =     -7.52161  eV     1   --> A              
     e(  5 -  5) =     -4.16549  eV     1   --> A              
     e(  6 -  6) =     -4.15306  eV     1   --> A              
     e(  7 -  7) =     -3.87406  eV     1   --> A              
     e(  8 -  8) =     -3.86964  eV     1   --> A              
     e(  9 -  9) =      3.11327  eV     1   --> A              
     e( 10 - 10) =      3.52819  eV     1   --> A              
     e( 11 - 11) =      4.24546  eV     1   --> A              
     e( 12 - 12) =      5.46213  eV     1   --> A              

 **************************************************************************

 **************************************************************************

                    xk=(   0.00000,   0.10392,   0.00000  )

     Band symmetry, C_1 (1)     point group:

     e(  1 -  1) =    -19.82489  eV     1   --> A              
     e(  2 -  2) =    -19.72279  eV     1   --> A              
     e(  3 -  3) =     -8.23209  eV     1   --> A              
     e(  4 -  4) =     -7.47454  eV     1   --> A              
     e(  5 -  5) =     -4.31560  eV     1   --> A              
     e(  6 -  6) =     -4.30227  eV     1   --> A              
     e(  7 -  7) =     -3.95044  eV     1   --> A              
     e(  8 -  8) =     -3.94597  eV     1   --> A              
     e(  9 -  9) =      3.16720  eV     1   --> A              
     e( 10 - 10) =      3.58278  eV     1   --> A              
     e( 11 - 11) =      4.30068  eV     1   --> A              
     e( 12 - 12) =      5.51695  eV     1   --> A              

 **************************************************************************

 **************************************************************************

                    xk=(   0.00000,   0.11547,   0.00000  )

     Band symmetry, C_1 (1)     point group:

     e(  1 -  1) =    -19.78007  eV     1   --> A              
     e(  2 -  2) =    -19.67826  eV     1   --> A              
     e(  3 -  3) =     -8.17821  eV     1   --> A              
     e(  4 -  4) =     -7.42200  eV     1   --> A              
     e(  5 -  5) =     -4.47940  eV     1   --> A              
     e(  6 -  6) =     -4.46507  eV     1   --> A              
     e(  7 -  7) =     -4.03299  eV     1   --> A              
     e(  8 -  8) =     -4.02844  eV     1   --> A              
     e(  9 -  9) =      3.22747  eV     1   --> A              
     e( 10 - 10) =      3.64377  eV     1   --> A              
     e( 11 - 11) =      4.36239  eV     1   --> A              
     e( 12 - 12) =      5.57822  eV     1   --> A              

 **************************************************************************

 **************************************************************************

                    xk=(   0.00000,   0.12702,   0.00000  )

     Band symmetry, C_1 (1)     point group:

     e(  1 -  1) =    -19.73055  eV     1   --> A              
     e(  2 -  2) =    -19.62906  eV     1   --> A              
     e(  3 -  3) =     -8.11871  eV     1   --> A              
     e(  4 -  4) =     -7.36396  eV     1   --> A              
     e(  5 -  5) =     -4.65587  eV     1   --> A              
     e(  6 -  6) =     -4.64043  eV     1   --> A              
     e(  7 -  7) =     -4.12092  eV     1   --> A              
     e(  8 -  8) =     -4.11628  eV     1   --> A              
     e(  9 -  9) =      3.29409  eV     1   --> A              
     e( 10 - 10) =      3.71117  eV     1   --> A              
     e( 11 - 11) =      4.43061  eV     1   --> A              
     e( 12 - 12) =      5.64592  eV     1   --> A              

 **************************************************************************

 **************************************************************************

                    xk=(   0.00000,   0.13856,   0.00000  )

     Band symmetry, C_1 (1)     point group:

     e(  1 -  1) =    -19.67635  eV     1   --> A              
     e(  2 -  2) =    -19.57521  eV     1   --> A              
     e(  3 -  3) =     -8.05365  eV     1   --> A              
     e(  4 -  4) =     -7.30052  eV     1   --> A              
     e(  5 -  5) =     -4.84385  eV     1   --> A              
     e(  6 -  6) =     -4.82730  eV     1   --> A              
     e(  7 -  7) =     -4.21350  eV     1   --> A              
     e(  8 -  8) =     -4.20877  eV     1   --> A              
     e(  9 -  9) =      3.36704  eV     1   --> A              
     e( 10 - 10) =      3.78497  eV     1   --> A              
     e( 11 - 11) =      4.50531  eV     1   --> A              
     e( 12 - 12) =      5.72005  eV     1   --> A              

 **************************************************************************

 **************************************************************************

                    xk=(   0.00000,   0.15011,   0.00000  )

     Band symmetry, C_1 (1)     point group:

     e(  1 -  1) =    -19.61747  eV     1   --> A              
     e(  2 -  2) =    -19.51672  eV     1   --> A              
     e(  3 -  3) =     -7.98304  eV     1   --> A              
     e(  4 -  4) =     -7.23166  eV     1   --> A              
     e(  5 -  5) =     -5.04244  eV     1   --> A              
     e(  6 -  6) =     -5.02471  eV     1   --> A              
     e(  7 -  7) =     -4.31005  eV     1   --> A              
     e(  8 -  8) =     -4.30524  eV     1   --> A              
     e(  9 -  9) =      3.44633  eV     1   --> A              
     e( 10 - 10) =      3.86516  eV     1   --> A              
     e( 11 - 11) =      4.58651  eV     1   --> A              
     e( 12 - 12) =      5.80059  eV     1   --> A              

 **************************************************************************

 **************************************************************************

                    xk=(   0.00000,   0.16166,   0.00000  )

     Band symmetry, C_1 (1)     point group:

     e(  1 -  1) =    -19.55393  eV     1   --> A              
     e(  2 -  2) =    -19.45359  eV     1   --> A              
     e(  3 -  3) =     -7.90690  eV     1   --> A              
     e(  4 -  4) =     -7.15747  eV     1   --> A              
     e(  5 -  5) =     -5.25060  eV     1   --> A              
     e(  6 -  6) =     -5.23165  eV     1   --> A              
     e(  7 -  7) =     -4.40990  eV     1   --> A              
     e(  8 -  8) =     -4.40499  eV     1   --> A              
     e(  9 -  9) =      3.53194  eV     1   --> A              
     e( 10 - 10) =      3.95174  eV     1   --> A              
     e( 11 - 11) =      4.67419  eV     1   --> A              
     e( 12 - 12) =      5.88754  eV     1   --> A              

 **************************************************************************

 **************************************************************************

                    xk=(   0.00000,   0.17321,   0.00000  )

     Band symmetry, C_1 (1)     point group:

     e(  1 -  1) =    -19.48574  eV     1   --> A              
     e(  2 -  2) =    -19.38583  eV     1   --> A              
     e(  3 -  3) =     -7.82527  eV     1   --> A              
     e(  4 -  4) =     -7.07794  eV     1   --> A              
     e(  5 -  5) =     -5.46748  eV     1   --> A              
     e(  6 -  6) =     -5.44724  eV     1   --> A              
     e(  7 -  7) =     -4.51237  eV     1   --> A              
     e(  8 -  8) =     -4.50738  eV     1   --> A              
     e(  9 -  9) =      3.62387  eV     1   --> A              
     e( 10 - 10) =      4.04468  eV     1   --> A              
     e( 11 - 11) =      4.76836  eV     1   --> A              
     e( 12 - 12) =      5.98088  eV     1   --> A              

 **************************************************************************

 **************************************************************************

                    xk=(   0.00000,   0.18475,   0.00000  )

     Band symmetry, C_1 (1)     point group:

     e(  1 -  1) =    -19.41290  eV     1   --> A              
     e(  2 -  2) =    -19.31347  eV     1   --> A              
     e(  3 -  3) =     -7.73820  eV     1   --> A              
     e(  4 -  4) =     -6.99312  eV     1   --> A              
     e(  5 -  5) =     -5.69208  eV     1   --> A              
     e(  6 -  6) =     -5.67059  eV     1   --> A              
     e(  7 -  7) =     -4.61685  eV     1   --> A              
     e(  8 -  8) =     -4.61178  eV     1   --> A              
     e(  9 -  9) =      3.72211  eV     1   --> A              
     e( 10 - 10) =      4.14397  eV     1   --> A              
     e( 11 - 11) =      4.86901  eV     1   --> A              
     e( 12 - 12) =      6.08058  eV     1   --> A              

 **************************************************************************

 **************************************************************************

                    xk=(   0.00000,   0.19630,   0.00000  )

     Band symmetry, C_1 (1)     point group:

     e(  1 -  1) =    -19.33544  eV     1   --> A              
     e(  2 -  2) =    -19.23650  eV     1   --> A              
     e(  3 -  3) =     -7.64573  eV     1   --> A              
     e(  4 -  4) =     -6.90309  eV     1   --> A              
     e(  5 -  5) =     -5.92357  eV     1   --> A              
     e(  6 -  6) =     -5.90078  eV     1   --> A              
     e(  7 -  7) =     -4.72278  eV     1   --> A              
     e(  8 -  8) =     -4.71762  eV     1   --> A              
     e(  9 -  9) =      3.82665  eV     1   --> A              
     e( 10 - 10) =      4.24960  eV     1   --> A              
     e( 11 - 11) =      4.97614  eV     1   --> A              
     e( 12 - 12) =      6.18660  eV     1   --> A              

 **************************************************************************

 **************************************************************************

                    xk=(   0.00000,   0.20785,   0.00000  )

     Band symmetry, C_1 (1)     point group:

     e(  1 -  1) =    -19.25336  eV     1   --> A              
     e(  2 -  2) =    -19.15494  eV     1   --> A              
     e(  3 -  3) =     -7.54788  eV     1   --> A              
     e(  4 -  4) =     -6.80785  eV     1   --> A              
     e(  5 -  5) =     -6.16114  eV     1   --> A              
     e(  6 -  6) =     -6.13701  eV     1   --> A              
     e(  7 -  7) =     -4.82953  eV     1   --> A              
     e(  8 -  8) =     -4.82430  eV     1   --> A              
     e(  9 -  9) =      3.93748  eV     1   --> A              
     e( 10 - 10) =      4.36154  eV     1   --> A              
     e( 11 - 11) =      5.08972  eV     1   --> A              
     e( 12 - 12) =      6.29889  eV     1   --> A              

 **************************************************************************

 **************************************************************************

                    xk=(   0.00000,   0.21939,   0.00000  )

     Band symmetry, C_1 (1)     point group:

     e(  1 -  1) =    -19.16668  eV     1   --> A              
     e(  2 -  2) =    -19.06881  eV     1   --> A              
     e(  3 -  3) =     -7.44471  eV     1   --> A              
     e(  4 -  4) =     -6.70750  eV     1   --> A              
     e(  5 -  5) =     -6.40409  eV     1   --> A              
     e(  6 -  6) =     -6.37859  eV     1   --> A              
     e(  7 -  7) =     -4.93663  eV     1   --> A              
     e(  8 -  8) =     -4.93134  eV     1   --> A              
     e(  9 -  9) =      4.05459  eV     1   --> A              
     e( 10 - 10) =      4.47976  eV     1   --> A              
     e( 11 - 11) =      5.20977  eV     1   --> A              
     e( 12 - 12) =      6.41735  eV     1   --> A              

 **************************************************************************

 **************************************************************************

                    xk=(   0.00000,   0.23094,   0.00000  )

     Band symmetry, C_1 (1)     point group:

     e(  1 -  1) =    -19.07541  eV     1   --> A              
     e(  2 -  2) =    -18.97811  eV     1   --> A              
     e(  3 -  3) =     -7.33627  eV     1   --> A              
     e(  4 -  4) =     -6.65166  eV     1   --> A              
     e(  5 -  5) =     -6.62658  eV     1   --> A              
     e(  6 -  6) =     -6.60027  eV     1   --> A              
     e(  7 -  7) =     -5.04365  eV     1   --> A              
     e(  8 -  8) =     -5.03828  eV     1   --> A              
     e(  9 -  9) =      4.17795  eV     1   --> A              
     e( 10 - 10) =      4.60421  eV     1   --> A              
     e( 11 - 11) =      5.33625  eV     1   --> A              
     e( 12 - 12) =      6.54183  eV     1   --> A              

 **************************************************************************

 **************************************************************************

                    xk=(   0.00000,   0.24249,   0.00000  )

     Band symmetry, C_1 (1)     point group:

     e(  1 -  1) =    -18.97958  eV     1   --> A              
     e(  2 -  2) =    -18.88289  eV     1   --> A              
     e(  3 -  3) =     -7.22271  eV     1   --> A              
     e(  4 -  4) =     -6.90316  eV     1   --> A              
     e(  5 -  5) =     -6.87529  eV     1   --> A              
     e(  6 -  6) =     -6.49128  eV     1   --> A              
     e(  7 -  7) =     -5.15011  eV     1   --> A              
     e(  8 -  8) =     -5.14467  eV     1   --> A              
     e(  9 -  9) =      4.30756  eV     1   --> A              
     e( 10 - 10) =      4.73483  eV     1   --> A              
     e( 11 - 11) =      5.46915  eV     1   --> A              
     e( 12 - 12) =      6.67198  eV     1   --> A              

 **************************************************************************

 **************************************************************************

                    xk=(   0.00000,   0.25403,   0.00000  )

     Band symmetry, C_1 (1)     point group:

     e(  1 -  1) =    -18.87921  eV     1   --> A              
     e(  2 -  2) =    -18.78314  eV     1   --> A              
     e(  3 -  3) =     -7.15928  eV     1   --> A              
     e(  4 -  4) =     -7.12885  eV     1   --> A              
     e(  5 -  5) =     -7.10282  eV     1   --> A              
     e(  6 -  6) =     -6.37590  eV     1   --> A              
     e(  7 -  7) =     -5.25564  eV     1   --> A              
     e(  8 -  8) =     -5.25013  eV     1   --> A              
     e(  9 -  9) =      4.44339  eV     1   --> A              
     e( 10 - 10) =      4.87153  eV     1   --> A              
     e( 11 - 11) =      5.60842  eV     1   --> A              
     e( 12 - 12) =      6.80695  eV     1   --> A              

 **************************************************************************

 **************************************************************************

                    xk=(   0.00000,   0.26558,   0.00000  )

     Band symmetry, C_1 (1)     point group:

     e(  1 -  1) =    -18.77430  eV     1   --> A              
     e(  2 -  2) =    -18.67889  eV     1   --> A              
     e(  3 -  3) =     -7.41624  eV     1   --> A              
     e(  4 -  4) =     -7.38530  eV     1   --> A              
     e(  5 -  5) =     -6.97982  eV     1   --> A              
     e(  6 -  6) =     -6.25563  eV     1   --> A              
     e(  7 -  7) =     -5.35990  eV     1   --> A              
     e(  8 -  8) =     -5.35431  eV     1   --> A              
     e(  9 -  9) =      4.58541  eV     1   --> A              
     e( 10 - 10) =      5.01414  eV     1   --> A              
     e( 11 - 11) =      5.75401  eV     1   --> A              
     e( 12 - 12) =      6.94064  eV     1   --> A              

 **************************************************************************

 **************************************************************************

                    xk=(   0.00000,   0.27713,   0.00000  )

     Band symmetry, C_1 (1)     point group:

     e(  1 -  1) =    -18.66488  eV     1   --> A              
     e(  2 -  2) =    -18.57016  eV     1   --> A              
     e(  3 -  3) =     -7.67627  eV     1   --> A              
     e(  4 -  4) =     -7.64401  eV     1   --> A              
     e(  5 -  5) =     -6.85108  eV     1   --> A              
     e(  6 -  6) =     -6.13058  eV     1   --> A              
     e(  7 -  7) =     -5.46246  eV     1   --> A              
     e(  8 -  8) =     -5.45682  eV     1   --> A              
     e(  9 -  9) =      4.73359  eV     1   --> A              
     e( 10 - 10) =      5.16237  eV     1   --> A              
     e( 11 - 11) =      5.90576  eV     1   --> A              
     e( 12 - 12) =      6.77930  eV     1   --> A              

 **************************************************************************

 **************************************************************************

                    xk=(   0.00000,   0.28868,   0.00000  )

     Band symmetry, C_1 (1)     point group:

     e(  1 -  1) =    -18.55099  eV     1   --> A              
     e(  2 -  2) =    -18.45699  eV     1   --> A              
     e(  3 -  3) =     -7.93814  eV     1   --> A              
     e(  4 -  4) =     -7.90452  eV     1   --> A              
     e(  5 -  5) =     -6.71745  eV     1   --> A              
     e(  6 -  6) =     -6.00091  eV     1   --> A              
     e(  7 -  7) =     -5.56305  eV     1   --> A              
     e(  8 -  8) =     -5.55737  eV     1   --> A              
     e(  9 -  9) =      4.88786  eV     1   --> A              
     e( 10 - 10) =      5.31563  eV     1   --> A              
     e( 11 - 11) =      6.06304  eV     1   --> A              
     e( 12 - 12) =      6.52893  eV     1   --> A              

 **************************************************************************

 **************************************************************************

                    xk=(   0.00000,   0.30022,   0.00000  )

     Band symmetry, C_1 (1)     point group:

     e(  1 -  1) =    -18.43264  eV     1   --> A              
     e(  2 -  2) =    -18.33936  eV     1   --> A              
     e(  3 -  3) =     -8.20136  eV     1   --> A              
[...]
     e(  8 -  8) =     -1.66507  eV     1   --> A              
     e(  9 -  9) =      0.52423  eV     1   --> A              
     e( 10 - 10) =      1.00531  eV     1   --> A              
     e( 11 - 11) =     10.17749  eV     1   --> A              
     e( 12 - 12) =     10.42121  eV     1   --> A              

 **************************************************************************

 **************************************************************************

                    xk=(  -0.21333,   0.57735,   0.00000  )

     Band symmetry, C_1 (1)     point group:

     e(  1 -  1) =    -14.08559  eV     1   --> A              
     e(  2 -  2) =    -14.01567  eV     1   --> A              
     e(  3 -  3) =    -13.11550  eV     1   --> A              
     e(  4 -  4) =    -13.05937  eV     1   --> A              
     e(  5 -  5) =     -9.59251  eV     1   --> A              
     e(  6 -  6) =     -9.55692  eV     1   --> A              
     e(  7 -  7) =     -2.13283  eV     1   --> A              
     e(  8 -  8) =     -1.60602  eV     1   --> A              
     e(  9 -  9) =      0.48798  eV     1   --> A              
     e( 10 - 10) =      0.96051  eV     1   --> A              
     e( 11 - 11) =     10.14784  eV     1   --> A              
     e( 12 - 12) =     10.54987  eV     1   --> A              

 **************************************************************************

 **************************************************************************

                    xk=(  -0.22000,   0.57735,   0.00000  )

     Band symmetry, C_1 (1)     point group:

     e(  1 -  1) =    -14.04186  eV     1   --> A              
     e(  2 -  2) =    -13.97226  eV     1   --> A              
     e(  3 -  3) =    -13.08322  eV     1   --> A              
     e(  4 -  4) =    -13.02744  eV     1   --> A              
     e(  5 -  5) =     -9.71417  eV     1   --> A              
     e(  6 -  6) =     -9.67797  eV     1   --> A              
     e(  7 -  7) =     -2.07096  eV     1   --> A              
     e(  8 -  8) =     -1.54514  eV     1   --> A              
     e(  9 -  9) =      0.44888  eV     1   --> A              
     e( 10 - 10) =      0.91320  eV     1   --> A              
     e( 11 - 11) =     10.08802  eV     1   --> A              
     e( 12 - 12) =     10.69264  eV     1   --> A              

 **************************************************************************

 **************************************************************************

                    xk=(  -0.22667,   0.57735,   0.00000  )

     Band symmetry, C_1 (1)     point group:

     e(  1 -  1) =    -13.99679  eV     1   --> A              
     e(  2 -  2) =    -13.92753  eV     1   --> A              
     e(  3 -  3) =    -13.05140  eV     1   --> A              
     e(  4 -  4) =    -12.99600  eV     1   --> A              
     e(  5 -  5) =     -9.83473  eV     1   --> A              
     e(  6 -  6) =     -9.79800  eV     1   --> A              
     e(  7 -  7) =     -2.00724  eV     1   --> A              
     e(  8 -  8) =     -1.48243  eV     1   --> A              
     e(  9 -  9) =      0.40683  eV     1   --> A              
     e( 10 - 10) =      0.86335  eV     1   --> A              
     e( 11 - 11) =     10.02145  eV     1   --> A              
     e( 12 - 12) =     10.82607  eV     1   --> A              

 **************************************************************************

 **************************************************************************

                    xk=(  -0.23333,   0.57735,   0.00000  )

     Band symmetry, C_1 (1)     point group:

     e(  1 -  1) =    -13.95041  eV     1   --> A              
     e(  2 -  2) =    -13.88149  eV     1   --> A              
     e(  3 -  3) =    -13.02041  eV     1   --> A              
     e(  4 -  4) =    -12.96541  eV     1   --> A              
     e(  5 -  5) =     -9.95376  eV     1   --> A              
     e(  6 -  6) =     -9.91658  eV     1   --> A              
     e(  7 -  7) =     -1.94169  eV     1   --> A              
     e(  8 -  8) =     -1.41794  eV     1   --> A              
     e(  9 -  9) =      0.36170  eV     1   --> A              
     e( 10 - 10) =      0.81091  eV     1   --> A              
     e( 11 - 11) =      9.95444  eV     1   --> A              
     e( 12 - 12) =     10.92594  eV     1   --> A              

 **************************************************************************

 **************************************************************************

                    xk=(  -0.24000,   0.57735,   0.00000  )

     Band symmetry, C_1 (1)     point group:

     e(  1 -  1) =    -13.90269  eV     1   --> A              
     e(  2 -  2) =    -13.83413  eV     1   --> A              
     e(  3 -  3) =    -12.99058  eV     1   --> A              
     e(  4 -  4) =    -12.93601  eV     1   --> A              
     e(  5 -  5) =    -10.07077  eV     1   --> A              
     e(  6 -  6) =    -10.03321  eV     1   --> A              
     e(  7 -  7) =     -1.87430  eV     1   --> A              
     e(  8 -  8) =     -1.35164  eV     1   --> A              
     e(  9 -  9) =      0.31343  eV     1   --> A              
     e( 10 - 10) =      0.75588  eV     1   --> A              
     e( 11 - 11) =      9.88930  eV     1   --> A              
     e( 12 - 12) =     10.97101  eV     1   --> A              

 **************************************************************************

 **************************************************************************

                    xk=(  -0.24667,   0.57735,   0.00000  )

     Band symmetry, C_1 (1)     point group:

     e(  1 -  1) =    -13.85365  eV     1   --> A              
     e(  2 -  2) =    -13.78545  eV     1   --> A              
     e(  3 -  3) =    -12.96237  eV     1   --> A              
     e(  4 -  4) =    -12.90825  eV     1   --> A              
     e(  5 -  5) =    -10.18522  eV     1   --> A              
     e(  6 -  6) =    -10.14740  eV     1   --> A              
     e(  7 -  7) =     -1.80508  eV     1   --> A              
     e(  8 -  8) =     -1.28355  eV     1   --> A              
     e(  9 -  9) =      0.26192  eV     1   --> A              
     e( 10 - 10) =      0.69823  eV     1   --> A              
     e( 11 - 11) =      9.82713  eV     1   --> A              
     e( 12 - 12) =     10.97737  eV     1   --> A              

 **************************************************************************

 **************************************************************************

                    xk=(  -0.25333,   0.57735,   0.00000  )

     Band symmetry, C_1 (1)     point group:

     e(  1 -  1) =    -13.80328  eV     1   --> A              
     e(  2 -  2) =    -13.73544  eV     1   --> A              
     e(  3 -  3) =    -12.93630  eV     1   --> A              
     e(  4 -  4) =    -12.88270  eV     1   --> A              
     e(  5 -  5) =    -10.29642  eV     1   --> A              
     e(  6 -  6) =    -10.25840  eV     1   --> A              
     e(  7 -  7) =     -1.73402  eV     1   --> A              
     e(  8 -  8) =     -1.21367  eV     1   --> A              
     e(  9 -  9) =      0.20714  eV     1   --> A              
     e( 10 - 10) =      0.63798  eV     1   --> A              
     e( 11 - 11) =      9.76855  eV     1   --> A              
     e( 12 - 12) =     10.96781  eV     1   --> A              

 **************************************************************************

 **************************************************************************

                    xk=(  -0.26000,   0.57735,   0.00000  )

     Band symmetry, C_1 (1)     point group:

     e(  1 -  1) =    -13.75156  eV     1   --> A              
     e(  2 -  2) =    -13.68413  eV     1   --> A              
     e(  3 -  3) =    -12.91300  eV     1   --> A              
     e(  4 -  4) =    -12.85992  eV     1   --> A              
     e(  5 -  5) =    -10.40368  eV     1   --> A              
     e(  6 -  6) =    -10.36558  eV     1   --> A              
     e(  7 -  7) =     -1.66118  eV     1   --> A              
     e(  8 -  8) =     -1.14199  eV     1   --> A              
     e(  9 -  9) =      0.14902  eV     1   --> A              
     e( 10 - 10) =      0.57513  eV     1   --> A              
     e( 11 - 11) =      9.71399  eV     1   --> A              
     e( 12 - 12) =     10.95230  eV     1   --> A              

 **************************************************************************

 **************************************************************************

                    xk=(  -0.26667,   0.57735,   0.00000  )

     Band symmetry, C_1 (1)     point group:

     e(  1 -  1) =    -13.69854  eV     1   --> A              
     e(  2 -  2) =    -13.63149  eV     1   --> A              
     e(  3 -  3) =    -12.89323  eV     1   --> A              
     e(  4 -  4) =    -12.84068  eV     1   --> A              
     e(  5 -  5) =    -10.50618  eV     1   --> A              
     e(  6 -  6) =    -10.46810  eV     1   --> A              
     e(  7 -  7) =     -1.58646  eV     1   --> A              
     e(  8 -  8) =     -1.06853  eV     1   --> A              
     e(  9 -  9) =      0.08754  eV     1   --> A              
     e( 10 - 10) =      0.50968  eV     1   --> A              
     e( 11 - 11) =      9.66373  eV     1   --> A              
     e( 12 - 12) =     10.93478  eV     1   --> A              

 **************************************************************************

 **************************************************************************

                    xk=(  -0.27333,   0.57735,   0.00000  )

     Band symmetry, C_1 (1)     point group:

     e(  1 -  1) =    -13.64420  eV     1   --> A              
     e(  2 -  2) =    -13.57752  eV     1   --> A              
     e(  3 -  3) =    -12.87785  eV     1   --> A              
     e(  4 -  4) =    -12.82580  eV     1   --> A              
     e(  5 -  5) =    -10.60298  eV     1   --> A              
     e(  6 -  6) =    -10.56503  eV     1   --> A              
     e(  7 -  7) =     -1.50997  eV     1   --> A              
     e(  8 -  8) =     -0.99331  eV     1   --> A              
     e(  9 -  9) =      0.02268  eV     1   --> A              
     e( 10 - 10) =      0.44166  eV     1   --> A              
     e( 11 - 11) =      9.61799  eV     1   --> A              
     e( 12 - 12) =     10.91705  eV     1   --> A              

 **************************************************************************

 **************************************************************************

                    xk=(  -0.28000,   0.57735,   0.00000  )

     Band symmetry, C_1 (1)     point group:

     e(  1 -  1) =    -13.58853  eV     1   --> A              
     e(  2 -  2) =    -13.52225  eV     1   --> A              
     e(  3 -  3) =    -12.86781  eV     1   --> A              
     e(  4 -  4) =    -12.81628  eV     1   --> A              
     e(  5 -  5) =    -10.69304  eV     1   --> A              
     e(  6 -  6) =    -10.65530  eV     1   --> A              
     e(  7 -  7) =     -1.43166  eV     1   --> A              
     e(  8 -  8) =     -0.91633  eV     1   --> A              
     e(  9 -  9) =     -0.04555  eV     1   --> A              
     e( 10 - 10) =      0.37107  eV     1   --> A              
     e( 11 - 11) =      9.57691  eV     1   --> A              
     e( 12 - 12) =     10.90012  eV     1   --> A              

 **************************************************************************

 **************************************************************************

                    xk=(  -0.28667,   0.57735,   0.00000  )

     Band symmetry, C_1 (1)     point group:

     e(  1 -  1) =    -13.53155  eV     1   --> A              
     e(  2 -  2) =    -13.46568  eV     1   --> A              
     e(  3 -  3) =    -12.86419  eV     1   --> A              
     e(  4 -  4) =    -12.81310  eV     1   --> A              
     e(  5 -  5) =    -10.77527  eV     1   --> A              
     e(  6 -  6) =    -10.73783  eV     1   --> A              
     e(  7 -  7) =     -1.35158  eV     1   --> A              
     e(  8 -  8) =     -0.83760  eV     1   --> A              
     e(  9 -  9) =     -0.11716  eV     1   --> A              
     e( 10 - 10) =      0.29798  eV     1   --> A              
     e( 11 - 11) =      9.54060  eV     1   --> A              
     e( 12 - 12) =     10.88457  eV     1   --> A              

 **************************************************************************

 **************************************************************************

                    xk=(  -0.29333,   0.57735,   0.00000  )

     Band symmetry, C_1 (1)     point group:

     e(  1 -  1) =    -13.47326  eV     1   --> A              
     e(  2 -  2) =    -13.40780  eV     1   --> A              
     e(  3 -  3) =    -12.86807  eV     1   --> A              
     e(  4 -  4) =    -12.81733  eV     1   --> A              
     e(  5 -  5) =    -10.84856  eV     1   --> A              
     e(  6 -  6) =    -10.81144  eV     1   --> A              
     e(  7 -  7) =     -1.26971  eV     1   --> A              
     e(  8 -  8) =     -0.75713  eV     1   --> A              
     e(  9 -  9) =     -0.19206  eV     1   --> A              
     e( 10 - 10) =      0.22243  eV     1   --> A              
     e( 11 - 11) =      9.50913  eV     1   --> A              
     e( 12 - 12) =     10.87079  eV     1   --> A              

 **************************************************************************

 **************************************************************************

                    xk=(  -0.30000,   0.57735,   0.00000  )

     Band symmetry, C_1 (1)     point group:

     e(  1 -  1) =    -13.41366  eV     1   --> A              
     e(  2 -  2) =    -13.34862  eV     1   --> A              
     e(  3 -  3) =    -12.88052  eV     1   --> A              
     e(  4 -  4) =    -12.82995  eV     1   --> A              
     e(  5 -  5) =    -10.91182  eV     1   --> A              
     e(  6 -  6) =    -10.87501  eV     1   --> A              
     e(  7 -  7) =     -1.18606  eV     1   --> A              
     e(  8 -  8) =     -0.67492  eV     1   --> A              
     e(  9 -  9) =     -0.27020  eV     1   --> A              
     e( 10 - 10) =      0.14445  eV     1   --> A              
     e( 11 - 11) =      9.48255  eV     1   --> A              
     e( 12 - 12) =     10.85901  eV     1   --> A              

 **************************************************************************

 **************************************************************************

                    xk=(  -0.30667,   0.57735,   0.00000  )

     Band symmetry, C_1 (1)     point group:

     e(  1 -  1) =    -13.35274  eV     1   --> A              
     e(  2 -  2) =    -13.28811  eV     1   --> A              
     e(  3 -  3) =    -12.90244  eV     1   --> A              
     e(  4 -  4) =    -12.85182  eV     1   --> A              
     e(  5 -  5) =    -10.96422  eV     1   --> A              
     e(  6 -  6) =    -10.92756  eV     1   --> A              
     e(  7 -  7) =     -1.10065  eV     1   --> A              
     e(  8 -  8) =     -0.59099  eV     1   --> A              
     e(  9 -  9) =     -0.35153  eV     1   --> A              
     e( 10 - 10) =      0.06409  eV     1   --> A              
     e( 11 - 11) =      9.46085  eV     1   --> A              
     e( 12 - 12) =     10.84936  eV     1   --> A              

 **************************************************************************

 **************************************************************************

                    xk=(  -0.31333,   0.57735,   0.00000  )

     Band symmetry, C_1 (1)     point group:

     e(  1 -  1) =    -13.29051  eV     1   --> A              
     e(  2 -  2) =    -13.22633  eV     1   --> A              
     e(  3 -  3) =    -12.93449  eV     1   --> A              
     e(  4 -  4) =    -12.88357  eV     1   --> A              
     e(  5 -  5) =    -11.00509  eV     1   --> A              
     e(  6 -  6) =    -10.96843  eV     1   --> A              
     e(  7 -  7) =     -1.01347  eV     1   --> A              
     e(  8 -  8) =     -0.50533  eV     1   --> A              
     e(  9 -  9) =     -0.43594  eV     1   --> A              
     e( 10 - 10) =     -0.01858  eV     1   --> A              
     e( 11 - 11) =      9.44400  eV     1   --> A              
     e( 12 - 12) =     10.84189  eV     1   --> A              

 **************************************************************************

 **************************************************************************

                    xk=(  -0.32000,   0.57735,   0.00000  )

     Band symmetry, C_1 (1)     point group:

     e(  1 -  1) =    -13.22698  eV     1   --> A              
     e(  2 -  2) =    -13.16324  eV     1   --> A              
     e(  3 -  3) =    -12.97690  eV     1   --> A              
     e(  4 -  4) =    -12.92542  eV     1   --> A              
     e(  5 -  5) =    -11.03406  eV     1   --> A              
     e(  6 -  6) =    -10.99720  eV     1   --> A              
     e(  7 -  7) =     -0.92454  eV     1   --> A              
     e(  8 -  8) =     -0.52334  eV     1   --> A              
     e(  9 -  9) =     -0.41797  eV     1   --> A              
     e( 10 - 10) =     -0.10353  eV     1   --> A              
     e( 11 - 11) =      9.43196  eV     1   --> A              
     e( 12 - 12) =     10.83656  eV     1   --> A              

 **************************************************************************

 **************************************************************************

                    xk=(  -0.32667,   0.57735,   0.00000  )

     Band symmetry, C_1 (1)     point group:

     e(  1 -  1) =    -13.16214  eV     1   --> A              
     e(  2 -  2) =    -13.09885  eV     1   --> A              
     e(  3 -  3) =    -13.02960  eV     1   --> A              
     e(  4 -  4) =    -12.97730  eV     1   --> A              
     e(  5 -  5) =    -11.05125  eV     1   --> A              
     e(  6 -  6) =    -11.01403  eV     1   --> A              
     e(  7 -  7) =     -0.83386  eV     1   --> A              
     e(  8 -  8) =     -0.61362  eV     1   --> A              
     e(  9 -  9) =     -0.32891  eV     1   --> A              
     e( 10 - 10) =     -0.19072  eV     1   --> A              
     e( 11 - 11) =      9.42464  eV     1   --> A              
     e( 12 - 12) =     10.83325  eV     1   --> A              

 **************************************************************************

 **************************************************************************

                    xk=(  -0.33333,   0.57735,   0.00000  )

     Band symmetry, C_1 (1)     point group:

     e(  1 -  1) =    -13.09601  eV     1   --> A              
     e(  2 -  2) =    -13.09202  eV     1   --> A              
     e(  3 -  3) =    -13.03873  eV     1   --> A              
     e(  4 -  4) =    -13.03317  eV     1   --> A              
     e(  5 -  5) =    -11.05710  eV     1   --> A              
     e(  6 -  6) =    -11.01938  eV     1   --> A              
     e(  7 -  7) =     -0.74146  eV     1   --> A              
     e(  8 -  8) =     -0.70665  eV     1   --> A              
     e(  9 -  9) =     -0.27999  eV     1   --> A              
     e( 10 - 10) =     -0.23816  eV     1   --> A              
     e( 11 - 11) =      9.42195  eV     1   --> A              
     e( 12 - 12) =     10.83176  eV     1   --> A              

 **************************************************************************
