
     Program PWSCF v.5.1 starts on 21Apr2020 at 14:43:15 

     This program is part of the open-source Quantum ESPRESSO suite
     for quantum simulation of materials; please cite
         "P. Giannozzi et al., J. Phys.:Condens. Matter 21 395502 (2009);
          URL http://www.quantum-espresso.org", 
     in publications or presentations arising from this work. More details at
     http://www.quantum-espresso.org/quote

     Parallel version (MPI), running on     1 processors
     Waiting for input...
     Reading input from standard input

     Current dimensions of program PWSCF are:
     Max number of different atomic species (ntypx) = 10
     Max number of k-points (npk) =  40000
     Max angular momentum in pseudopotentials (lmaxx) =  3

     Atomic positions and unit cell read from directory:
     ../tmp/g.dos1.save/


     IMPORTANT: XC functional enforced from input :
     Exchange-correlation      = PBE ( 1  4  3  4 0)
     Any further DFT definition will be discarded
     Please, verify this is what you really want

               file C.pbe-rrkjus.UPF: wavefunction(s)  2S 2P renormalized

     Subspace diagonalization in iterative solution of the eigenvalue problem:
     a serial algorithm will be used


     G-vector sticks info
     --------------------
     sticks:   dense  smooth     PW     G-vecs:    dense   smooth      PW
     Sum         595     241     85                96043    24369    4587

     Generating pointlists ...
     new r_m :   0.2381 (alat units)  1.1104 (a.u.) for type    1


     bravais-lattice index     =           12
     lattice parameter (alat)  =       4.6627  a.u.
     unit-cell volume          =     711.6007 (a.u.)^3
     number of atoms/cell      =            4
     number of atomic types    =            1
     number of electrons       =        16.00
     number of Kohn-Sham states=           12
     kinetic-energy cutoff     =      40.0000  Ry
     charge density cutoff     =     400.0000  Ry
     Exchange-correlation      = PBE ( 1  4  3  4 0)

     celldm(1)=   4.662710  celldm(2)=   1.000000  celldm(3)=   8.105698
     celldm(4)=  -0.500000  celldm(5)=   0.000000  celldm(6)=   0.000000

     crystal axes: (cart. coord. in units of alat)
               a(1) = (   1.000000   0.000000   0.000000 )  
               a(2) = (  -0.500000   0.866025   0.000000 )  
               a(3) = (   0.000000   0.000000   8.105698 )  

     reciprocal axes: (cart. coord. in units 2 pi/alat)
               b(1) = (  1.000000  0.577350 -0.000000 )  
               b(2) = (  0.000000  1.154701  0.000000 )  
               b(3) = (  0.000000 -0.000000  0.123370 )  


     PseudoPot. # 1 for C  read from file:
     ../pseudo/C.pbe-rrkjus.UPF
     MD5 check sum: 00fb224312de0c5b6853bd333518df6f
     Pseudo is Ultrasoft, Zval =  4.0
     Generated by new atomic code, or converted to UPF format
     Using radial grid of  627 points,  4 beta functions with: 
                l(1) =   0
                l(2) =   0
                l(3) =   1
                l(4) =   1
     Q(r) pseudized with 0 coefficients 


     atomic species   valence    mass     pseudopotential
        C              4.00    12.01100     C ( 1.00)

     Starting magnetic structure 
     atomic species   magnetization
        C           -0.500

     No symmetry found
          (note:  3 additional sym.ops. were found but ignored
           their fractional translations are incommensurate with FFT grid)

                                    s                        frac. trans.

      isym =  1     identity                                     

 cryst.   s( 1) = (     1          0          0      )
                  (     0          1          0      )
                  (     0          0          1      )

 cart.    s( 1) = (  1.0000000  0.0000000  0.0000000 )
                  (  0.0000000  1.0000000  0.0000000 )
                  (  0.0000000  0.0000000  1.0000000 )


     point group C_1 (1)    
     there are  1 classes
     the character table:

       E    
A      1.00

     the symmetry operations in each class:
     E        1

   Cartesian axes

     site n.     atom                  positions (alat units)
         1           C   tau(   1) = (   0.0000000   0.0000000   2.0264246  )
         2           C   tau(   2) = (   0.0000000   0.5773284   2.0264246  )
         3           C   tau(   3) = (   0.4052849   0.0000000   3.3638648  )
         4           C   tau(   4) = (   0.4052849   0.5773284   3.3638648  )

   Crystallographic axes

     site n.     atom                  positions (cryst. coord.)
         1           C   tau(   1) = (  0.0000000  0.0000000  0.2500000  )
         2           C   tau(   2) = (  0.3333207  0.6666414  0.2500000  )
         3           C   tau(   3) = (  0.4052849  0.0000000  0.4150000  )
         4           C   tau(   4) = (  0.7386056  0.6666414  0.4150000  )

     number of k points=   148  Marzari-Vanderbilt smearing, width (Ry)=  0.0001
                       cart. coord. in units 2pi/alat
        k(    1) = (   0.0000000   0.0000000   0.0000000), wk =   0.0069444
        k(    2) = (   0.0000000   0.0962250   0.0000000), wk =   0.0138889
        k(    3) = (   0.0000000   0.1924501   0.0000000), wk =   0.0138889
        k(    4) = (   0.0000000   0.2886751   0.0000000), wk =   0.0138889
        k(    5) = (   0.0000000   0.3849002   0.0000000), wk =   0.0138889
        k(    6) = (   0.0000000   0.4811252   0.0000000), wk =   0.0138889
        k(    7) = (   0.0000000  -0.5773503   0.0000000), wk =   0.0069444
        k(    8) = (   0.0833333   0.1443376   0.0000000), wk =   0.0138889
        k(    9) = (   0.0833333   0.2405626   0.0000000), wk =   0.0138889
        k(   10) = (   0.0833333   0.3367877   0.0000000), wk =   0.0138889
        k(   11) = (   0.0833333   0.4330127   0.0000000), wk =   0.0138889
        k(   12) = (   0.0833333   0.5292377   0.0000000), wk =   0.0138889
        k(   13) = (   0.1666667   0.2886751   0.0000000), wk =   0.0138889
        k(   14) = (   0.1666667   0.3849002   0.0000000), wk =   0.0138889
        k(   15) = (   0.1666667   0.4811252   0.0000000), wk =   0.0138889
        k(   16) = (   0.1666667   0.5773503   0.0000000), wk =   0.0138889
        k(   17) = (   0.2500000   0.4330127   0.0000000), wk =   0.0138889
        k(   18) = (   0.2500000   0.5292377   0.0000000), wk =   0.0138889
        k(   19) = (   0.3333333   0.5773503   0.0000000), wk =   0.0138889
        k(   20) = (  -0.0833333   0.0481125   0.0000000), wk =   0.0138889
        k(   21) = (   0.0833333   0.0481125   0.0000000), wk =   0.0138889
        k(   22) = (  -0.1666667   0.0962250   0.0000000), wk =   0.0138889
        k(   23) = (   0.1666667   0.0962250   0.0000000), wk =   0.0138889
        k(   24) = (  -0.2500000   0.1443376   0.0000000), wk =   0.0138889
        k(   25) = (   0.2500000   0.1443376   0.0000000), wk =   0.0138889
        k(   26) = (  -0.3333333   0.1924501   0.0000000), wk =   0.0138889
        k(   27) = (   0.3333333   0.1924501   0.0000000), wk =   0.0138889
        k(   28) = (  -0.4166667   0.2405626   0.0000000), wk =   0.0138889
        k(   29) = (   0.4166667   0.2405626   0.0000000), wk =   0.0138889
        k(   30) = (   0.5000000  -0.2886751   0.0000000), wk =   0.0069444
        k(   31) = (  -0.5000000  -0.2886751   0.0000000), wk =   0.0069444
        k(   32) = (  -0.0833333   0.1443376   0.0000000), wk =   0.0138889
        k(   33) = (   0.1666667  -0.0000000   0.0000000), wk =   0.0138889
        k(   34) = (  -0.0833333   0.2405626   0.0000000), wk =   0.0138889
        k(   35) = (  -0.1666667   0.1924501   0.0000000), wk =   0.0138889
        k(   36) = (   0.2500000   0.0481125   0.0000000), wk =   0.0138889
        k(   37) = (  -0.1666667  -0.1924501   0.0000000), wk =   0.0138889
        k(   38) = (   0.2500000  -0.0481125   0.0000000), wk =   0.0138889
        k(   39) = (  -0.0833333   0.3367877   0.0000000), wk =   0.0138889
        k(   40) = (  -0.2500000   0.2405626   0.0000000), wk =   0.0138889
        k(   41) = (   0.3333333   0.0962250   0.0000000), wk =   0.0138889
        k(   42) = (  -0.2500000  -0.2405626   0.0000000), wk =   0.0138889
        k(   43) = (   0.3333333  -0.0962250   0.0000000), wk =   0.0138889
        k(   44) = (  -0.0833333   0.4330127   0.0000000), wk =   0.0138889
        k(   45) = (  -0.3333333   0.2886751   0.0000000), wk =   0.0138889
        k(   46) = (   0.4166667   0.1443376   0.0000000), wk =   0.0138889
        k(   47) = (  -0.3333333  -0.2886751   0.0000000), wk =   0.0138889
        k(   48) = (   0.4166667  -0.1443376   0.0000000), wk =   0.0138889
        k(   49) = (  -0.0833333   0.5292377   0.0000000), wk =   0.0138889
        k(   50) = (  -0.4166667   0.3367877   0.0000000), wk =   0.0138889
        k(   51) = (   0.5000000   0.1924501   0.0000000), wk =   0.0138889
        k(   52) = (  -0.4166667  -0.3367877   0.0000000), wk =   0.0138889
        k(   53) = (   0.5000000  -0.1924501   0.0000000), wk =   0.0138889
        k(   54) = (  -0.1666667   0.2886751   0.0000000), wk =   0.0138889
        k(   55) = (   0.3333333  -0.0000000   0.0000000), wk =   0.0138889
        k(   56) = (  -0.1666667   0.3849002   0.0000000), wk =   0.0138889
        k(   57) = (  -0.2500000   0.3367877   0.0000000), wk =   0.0138889
        k(   58) = (   0.4166667   0.0481125   0.0000000), wk =   0.0138889
        k(   59) = (  -0.2500000  -0.3367877   0.0000000), wk =   0.0138889
        k(   60) = (   0.4166667  -0.0481125   0.0000000), wk =   0.0138889
        k(   61) = (  -0.1666667   0.4811252   0.0000000), wk =   0.0138889
        k(   62) = (  -0.3333333   0.3849002   0.0000000), wk =   0.0138889
        k(   63) = (   0.5000000   0.0962250   0.0000000), wk =   0.0138889
        k(   64) = (  -0.3333333  -0.3849002   0.0000000), wk =   0.0138889
        k(   65) = (   0.5000000  -0.0962250   0.0000000), wk =   0.0138889
        k(   66) = (  -0.4166667   0.4330127   0.0000000), wk =   0.0138889
        k(   67) = (   0.5833333   0.1443376   0.0000000), wk =   0.0138889
        k(   68) = (  -0.2500000   0.4330127   0.0000000), wk =   0.0138889
        k(   69) = (   0.5000000  -0.0000000   0.0000000), wk =   0.0138889
        k(   70) = (  -0.2500000   0.5292377   0.0000000), wk =   0.0138889
        k(   71) = (  -0.3333333   0.4811252   0.0000000), wk =   0.0138889
        k(   72) = (   0.5833333   0.0481125   0.0000000), wk =   0.0138889
        k(   73) = (  -0.3333333  -0.4811252   0.0000000), wk =   0.0138889
        k(   74) = (   0.5833333  -0.0481125   0.0000000), wk =   0.0138889
        k(   75) = (   0.0000000   0.0000000   0.0000000), wk =   0.0069444
        k(   76) = (   0.0000000   0.0962250   0.0000000), wk =   0.0138889
        k(   77) = (   0.0000000   0.1924501   0.0000000), wk =   0.0138889
        k(   78) = (   0.0000000   0.2886751   0.0000000), wk =   0.0138889
        k(   79) = (   0.0000000   0.3849002   0.0000000), wk =   0.0138889
        k(   80) = (   0.0000000   0.4811252   0.0000000), wk =   0.0138889
        k(   81) = (   0.0000000  -0.5773503   0.0000000), wk =   0.0069444
        k(   82) = (   0.0833333   0.1443376   0.0000000), wk =   0.0138889
        k(   83) = (   0.0833333   0.2405626   0.0000000), wk =   0.0138889
        k(   84) = (   0.0833333   0.3367877   0.0000000), wk =   0.0138889
        k(   85) = (   0.0833333   0.4330127   0.0000000), wk =   0.0138889
        k(   86) = (   0.0833333   0.5292377   0.0000000), wk =   0.0138889
        k(   87) = (   0.1666667   0.2886751   0.0000000), wk =   0.0138889
        k(   88) = (   0.1666667   0.3849002   0.0000000), wk =   0.0138889
        k(   89) = (   0.1666667   0.4811252   0.0000000), wk =   0.0138889
        k(   90) = (   0.1666667   0.5773503   0.0000000), wk =   0.0138889
        k(   91) = (   0.2500000   0.4330127   0.0000000), wk =   0.0138889
        k(   92) = (   0.2500000   0.5292377   0.0000000), wk =   0.0138889
        k(   93) = (   0.3333333   0.5773503   0.0000000), wk =   0.0138889
        k(   94) = (  -0.0833333   0.0481125   0.0000000), wk =   0.0138889
        k(   95) = (   0.0833333   0.0481125   0.0000000), wk =   0.0138889
        k(   96) = (  -0.1666667   0.0962250   0.0000000), wk =   0.0138889
        k(   97) = (   0.1666667   0.0962250   0.0000000), wk =   0.0138889
        k(   98) = (  -0.2500000   0.1443376   0.0000000), wk =   0.0138889
        k(   99) = (   0.2500000   0.1443376   0.0000000), wk =   0.0138889
        k(  100) = (  -0.3333333   0.1924501   0.0000000), wk =   0.0138889
        k(  101) = (   0.3333333   0.1924501   0.0000000), wk =   0.0138889
        k(  102) = (  -0.4166667   0.2405626   0.0000000), wk =   0.0138889
        k(  103) = (   0.4166667   0.2405626   0.0000000), wk =   0.0138889
        k(  104) = (   0.5000000  -0.2886751   0.0000000), wk =   0.0069444
        k(  105) = (  -0.5000000  -0.2886751   0.0000000), wk =   0.0069444
        k(  106) = (  -0.0833333   0.1443376   0.0000000), wk =   0.0138889
        k(  107) = (   0.1666667  -0.0000000   0.0000000), wk =   0.0138889
        k(  108) = (  -0.0833333   0.2405626   0.0000000), wk =   0.0138889
        k(  109) = (  -0.1666667   0.1924501   0.0000000), wk =   0.0138889
        k(  110) = (   0.2500000   0.0481125   0.0000000), wk =   0.0138889
        k(  111) = (  -0.1666667  -0.1924501   0.0000000), wk =   0.0138889
        k(  112) = (   0.2500000  -0.0481125   0.0000000), wk =   0.0138889
        k(  113) = (  -0.0833333   0.3367877   0.0000000), wk =   0.0138889
        k(  114) = (  -0.2500000   0.2405626   0.0000000), wk =   0.0138889
        k(  115) = (   0.3333333   0.0962250   0.0000000), wk =   0.0138889
        k(  116) = (  -0.2500000  -0.2405626   0.0000000), wk =   0.0138889
        k(  117) = (   0.3333333  -0.0962250   0.0000000), wk =   0.0138889
        k(  118) = (  -0.0833333   0.4330127   0.0000000), wk =   0.0138889
        k(  119) = (  -0.3333333   0.2886751   0.0000000), wk =   0.0138889
        k(  120) = (   0.4166667   0.1443376   0.0000000), wk =   0.0138889
        k(  121) = (  -0.3333333  -0.2886751   0.0000000), wk =   0.0138889
        k(  122) = (   0.4166667  -0.1443376   0.0000000), wk =   0.0138889
        k(  123) = (  -0.0833333   0.5292377   0.0000000), wk =   0.0138889
        k(  124) = (  -0.4166667   0.3367877   0.0000000), wk =   0.0138889
        k(  125) = (   0.5000000   0.1924501   0.0000000), wk =   0.0138889
        k(  126) = (  -0.4166667  -0.3367877   0.0000000), wk =   0.0138889
        k(  127) = (   0.5000000  -0.1924501   0.0000000), wk =   0.0138889
        k(  128) = (  -0.1666667   0.2886751   0.0000000), wk =   0.0138889
        k(  129) = (   0.3333333  -0.0000000   0.0000000), wk =   0.0138889
        k(  130) = (  -0.1666667   0.3849002   0.0000000), wk =   0.0138889
        k(  131) = (  -0.2500000   0.3367877   0.0000000), wk =   0.0138889
        k(  132) = (   0.4166667   0.0481125   0.0000000), wk =   0.0138889
        k(  133) = (  -0.2500000  -0.3367877   0.0000000), wk =   0.0138889
        k(  134) = (   0.4166667  -0.0481125   0.0000000), wk =   0.0138889
        k(  135) = (  -0.1666667   0.4811252   0.0000000), wk =   0.0138889
        k(  136) = (  -0.3333333   0.3849002   0.0000000), wk =   0.0138889
        k(  137) = (   0.5000000   0.0962250   0.0000000), wk =   0.0138889
        k(  138) = (  -0.3333333  -0.3849002   0.0000000), wk =   0.0138889
        k(  139) = (   0.5000000  -0.0962250   0.0000000), wk =   0.0138889
        k(  140) = (  -0.4166667   0.4330127   0.0000000), wk =   0.0138889
        k(  141) = (   0.5833333   0.1443376   0.0000000), wk =   0.0138889
        k(  142) = (  -0.2500000   0.4330127   0.0000000), wk =   0.0138889
        k(  143) = (   0.5000000  -0.0000000   0.0000000), wk =   0.0138889
        k(  144) = (  -0.2500000   0.5292377   0.0000000), wk =   0.0138889
        k(  145) = (  -0.3333333   0.4811252   0.0000000), wk =   0.0138889
        k(  146) = (   0.5833333   0.0481125   0.0000000), wk =   0.0138889
        k(  147) = (  -0.3333333  -0.4811252   0.0000000), wk =   0.0138889
        k(  148) = (   0.5833333  -0.0481125   0.0000000), wk =   0.0138889

                       cryst. coord.
        k(    1) = (   0.0000000   0.0000000   0.0000000), wk =   0.0069444
        k(    2) = (   0.0000000   0.0833333   0.0000000), wk =   0.0138889
        k(    3) = (   0.0000000   0.1666667   0.0000000), wk =   0.0138889
        k(    4) = (   0.0000000   0.2500000   0.0000000), wk =   0.0138889
        k(    5) = (   0.0000000   0.3333333   0.0000000), wk =   0.0138889
        k(    6) = (   0.0000000   0.4166667   0.0000000), wk =   0.0138889
        k(    7) = (   0.0000000  -0.5000000   0.0000000), wk =   0.0069444
        k(    8) = (   0.0833333   0.0833333   0.0000000), wk =   0.0138889
        k(    9) = (   0.0833333   0.1666667   0.0000000), wk =   0.0138889
        k(   10) = (   0.0833333   0.2500000   0.0000000), wk =   0.0138889
        k(   11) = (   0.0833333   0.3333333   0.0000000), wk =   0.0138889
        k(   12) = (   0.0833333   0.4166667   0.0000000), wk =   0.0138889
        k(   13) = (   0.1666667   0.1666667   0.0000000), wk =   0.0138889
        k(   14) = (   0.1666667   0.2500000   0.0000000), wk =   0.0138889
        k(   15) = (   0.1666667   0.3333333   0.0000000), wk =   0.0138889
        k(   16) = (   0.1666667   0.4166667   0.0000000), wk =   0.0138889
        k(   17) = (   0.2500000   0.2500000   0.0000000), wk =   0.0138889
        k(   18) = (   0.2500000   0.3333333   0.0000000), wk =   0.0138889
        k(   19) = (   0.3333333   0.3333333   0.0000000), wk =   0.0138889
        k(   20) = (  -0.0833333   0.0833333   0.0000000), wk =   0.0138889
        k(   21) = (   0.0833333   0.0000000   0.0000000), wk =   0.0138889
        k(   22) = (  -0.1666667   0.1666667   0.0000000), wk =   0.0138889
        k(   23) = (   0.1666667   0.0000000   0.0000000), wk =   0.0138889
        k(   24) = (  -0.2500000   0.2500000   0.0000000), wk =   0.0138889
        k(   25) = (   0.2500000   0.0000000   0.0000000), wk =   0.0138889
        k(   26) = (  -0.3333333   0.3333333   0.0000000), wk =   0.0138889
        k(   27) = (   0.3333333   0.0000000   0.0000000), wk =   0.0138889
        k(   28) = (  -0.4166667   0.4166667   0.0000000), wk =   0.0138889
        k(   29) = (   0.4166667   0.0000000   0.0000000), wk =   0.0138889
        k(   30) = (   0.5000000  -0.5000000   0.0000000), wk =   0.0069444
        k(   31) = (  -0.5000000   0.0000000   0.0000000), wk =   0.0069444
        k(   32) = (  -0.0833333   0.1666667   0.0000000), wk =   0.0138889
        k(   33) = (   0.1666667  -0.0833333   0.0000000), wk =   0.0138889
        k(   34) = (  -0.0833333   0.2500000   0.0000000), wk =   0.0138889
        k(   35) = (  -0.1666667   0.2500000   0.0000000), wk =   0.0138889
        k(   36) = (   0.2500000  -0.0833333   0.0000000), wk =   0.0138889
        k(   37) = (  -0.1666667  -0.0833333   0.0000000), wk =   0.0138889
        k(   38) = (   0.2500000  -0.1666667   0.0000000), wk =   0.0138889
        k(   39) = (  -0.0833333   0.3333333   0.0000000), wk =   0.0138889
        k(   40) = (  -0.2500000   0.3333333   0.0000000), wk =   0.0138889
        k(   41) = (   0.3333333  -0.0833333   0.0000000), wk =   0.0138889
        k(   42) = (  -0.2500000  -0.0833333   0.0000000), wk =   0.0138889
        k(   43) = (   0.3333333  -0.2500000   0.0000000), wk =   0.0138889
        k(   44) = (  -0.0833333   0.4166667   0.0000000), wk =   0.0138889
        k(   45) = (  -0.3333333   0.4166667   0.0000000), wk =   0.0138889
        k(   46) = (   0.4166667  -0.0833333   0.0000000), wk =   0.0138889
        k(   47) = (  -0.3333333  -0.0833333   0.0000000), wk =   0.0138889
        k(   48) = (   0.4166667  -0.3333333   0.0000000), wk =   0.0138889
        k(   49) = (  -0.0833333   0.5000000   0.0000000), wk =   0.0138889
        k(   50) = (  -0.4166667   0.5000000   0.0000000), wk =   0.0138889
        k(   51) = (   0.5000000  -0.0833333   0.0000000), wk =   0.0138889
        k(   52) = (  -0.4166667  -0.0833333   0.0000000), wk =   0.0138889
        k(   53) = (   0.5000000  -0.4166667   0.0000000), wk =   0.0138889
        k(   54) = (  -0.1666667   0.3333333   0.0000000), wk =   0.0138889
        k(   55) = (   0.3333333  -0.1666667   0.0000000), wk =   0.0138889
        k(   56) = (  -0.1666667   0.4166667   0.0000000), wk =   0.0138889
        k(   57) = (  -0.2500000   0.4166667   0.0000000), wk =   0.0138889
        k(   58) = (   0.4166667  -0.1666667   0.0000000), wk =   0.0138889
        k(   59) = (  -0.2500000  -0.1666667   0.0000000), wk =   0.0138889
        k(   60) = (   0.4166667  -0.2500000   0.0000000), wk =   0.0138889
        k(   61) = (  -0.1666667   0.5000000   0.0000000), wk =   0.0138889
        k(   62) = (  -0.3333333   0.5000000   0.0000000), wk =   0.0138889
        k(   63) = (   0.5000000  -0.1666667   0.0000000), wk =   0.0138889
        k(   64) = (  -0.3333333  -0.1666667   0.0000000), wk =   0.0138889
        k(   65) = (   0.5000000  -0.3333333   0.0000000), wk =   0.0138889
        k(   66) = (  -0.4166667   0.5833333   0.0000000), wk =   0.0138889
        k(   67) = (   0.5833333  -0.1666667   0.0000000), wk =   0.0138889
        k(   68) = (  -0.2500000   0.5000000   0.0000000), wk =   0.0138889
        k(   69) = (   0.5000000  -0.2500000   0.0000000), wk =   0.0138889
        k(   70) = (  -0.2500000   0.5833333   0.0000000), wk =   0.0138889
        k(   71) = (  -0.3333333   0.5833333   0.0000000), wk =   0.0138889
        k(   72) = (   0.5833333  -0.2500000   0.0000000), wk =   0.0138889
        k(   73) = (  -0.3333333  -0.2500000   0.0000000), wk =   0.0138889
        k(   74) = (   0.5833333  -0.3333333   0.0000000), wk =   0.0138889
        k(   75) = (   0.0000000   0.0000000   0.0000000), wk =   0.0069444
        k(   76) = (   0.0000000   0.0833333   0.0000000), wk =   0.0138889
        k(   77) = (   0.0000000   0.1666667   0.0000000), wk =   0.0138889
        k(   78) = (   0.0000000   0.2500000   0.0000000), wk =   0.0138889
        k(   79) = (   0.0000000   0.3333333   0.0000000), wk =   0.0138889
        k(   80) = (   0.0000000   0.4166667   0.0000000), wk =   0.0138889
        k(   81) = (   0.0000000  -0.5000000   0.0000000), wk =   0.0069444
        k(   82) = (   0.0833333   0.0833333   0.0000000), wk =   0.0138889
        k(   83) = (   0.0833333   0.1666667   0.0000000), wk =   0.0138889
        k(   84) = (   0.0833333   0.2500000   0.0000000), wk =   0.0138889
        k(   85) = (   0.0833333   0.3333333   0.0000000), wk =   0.0138889
        k(   86) = (   0.0833333   0.4166667   0.0000000), wk =   0.0138889
        k(   87) = (   0.1666667   0.1666667   0.0000000), wk =   0.0138889
        k(   88) = (   0.1666667   0.2500000   0.0000000), wk =   0.0138889
        k(   89) = (   0.1666667   0.3333333   0.0000000), wk =   0.0138889
        k(   90) = (   0.1666667   0.4166667   0.0000000), wk =   0.0138889
        k(   91) = (   0.2500000   0.2500000   0.0000000), wk =   0.0138889
        k(   92) = (   0.2500000   0.3333333   0.0000000), wk =   0.0138889
        k(   93) = (   0.3333333   0.3333333   0.0000000), wk =   0.0138889
        k(   94) = (  -0.0833333   0.0833333   0.0000000), wk =   0.0138889
        k(   95) = (   0.0833333   0.0000000   0.0000000), wk =   0.0138889
        k(   96) = (  -0.1666667   0.1666667   0.0000000), wk =   0.0138889
        k(   97) = (   0.1666667   0.0000000   0.0000000), wk =   0.0138889
        k(   98) = (  -0.2500000   0.2500000   0.0000000), wk =   0.0138889
        k(   99) = (   0.2500000   0.0000000   0.0000000), wk =   0.0138889
        k(  100) = (  -0.3333333   0.3333333   0.0000000), wk =   0.0138889
        k(  101) = (   0.3333333   0.0000000   0.0000000), wk =   0.0138889
        k(  102) = (  -0.4166667   0.4166667   0.0000000), wk =   0.0138889
        k(  103) = (   0.4166667   0.0000000   0.0000000), wk =   0.0138889
        k(  104) = (   0.5000000  -0.5000000   0.0000000), wk =   0.0069444
        k(  105) = (  -0.5000000   0.0000000   0.0000000), wk =   0.0069444
        k(  106) = (  -0.0833333   0.1666667   0.0000000), wk =   0.0138889
        k(  107) = (   0.1666667  -0.0833333   0.0000000), wk =   0.0138889
        k(  108) = (  -0.0833333   0.2500000   0.0000000), wk =   0.0138889
        k(  109) = (  -0.1666667   0.2500000   0.0000000), wk =   0.0138889
        k(  110) = (   0.2500000  -0.0833333   0.0000000), wk =   0.0138889
        k(  111) = (  -0.1666667  -0.0833333   0.0000000), wk =   0.0138889
        k(  112) = (   0.2500000  -0.1666667   0.0000000), wk =   0.0138889
        k(  113) = (  -0.0833333   0.3333333   0.0000000), wk =   0.0138889
        k(  114) = (  -0.2500000   0.3333333   0.0000000), wk =   0.0138889
        k(  115) = (   0.3333333  -0.0833333   0.0000000), wk =   0.0138889
        k(  116) = (  -0.2500000  -0.0833333   0.0000000), wk =   0.0138889
        k(  117) = (   0.3333333  -0.2500000   0.0000000), wk =   0.0138889
        k(  118) = (  -0.0833333   0.4166667   0.0000000), wk =   0.0138889
        k(  119) = (  -0.3333333   0.4166667   0.0000000), wk =   0.0138889
        k(  120) = (   0.4166667  -0.0833333   0.0000000), wk =   0.0138889
        k(  121) = (  -0.3333333  -0.0833333   0.0000000), wk =   0.0138889
        k(  122) = (   0.4166667  -0.3333333   0.0000000), wk =   0.0138889
        k(  123) = (  -0.0833333   0.5000000   0.0000000), wk =   0.0138889
        k(  124) = (  -0.4166667   0.5000000   0.0000000), wk =   0.0138889
        k(  125) = (   0.5000000  -0.0833333   0.0000000), wk =   0.0138889
        k(  126) = (  -0.4166667  -0.0833333   0.0000000), wk =   0.0138889
        k(  127) = (   0.5000000  -0.4166667   0.0000000), wk =   0.0138889
        k(  128) = (  -0.1666667   0.3333333   0.0000000), wk =   0.0138889
        k(  129) = (   0.3333333  -0.1666667   0.0000000), wk =   0.0138889
        k(  130) = (  -0.1666667   0.4166667   0.0000000), wk =   0.0138889
        k(  131) = (  -0.2500000   0.4166667   0.0000000), wk =   0.0138889
        k(  132) = (   0.4166667  -0.1666667   0.0000000), wk =   0.0138889
        k(  133) = (  -0.2500000  -0.1666667   0.0000000), wk =   0.0138889
        k(  134) = (   0.4166667  -0.2500000   0.0000000), wk =   0.0138889
        k(  135) = (  -0.1666667   0.5000000   0.0000000), wk =   0.0138889
        k(  136) = (  -0.3333333   0.5000000   0.0000000), wk =   0.0138889
        k(  137) = (   0.5000000  -0.1666667   0.0000000), wk =   0.0138889
        k(  138) = (  -0.3333333  -0.1666667   0.0000000), wk =   0.0138889
        k(  139) = (   0.5000000  -0.3333333   0.0000000), wk =   0.0138889
        k(  140) = (  -0.4166667   0.5833333   0.0000000), wk =   0.0138889
        k(  141) = (   0.5833333  -0.1666667   0.0000000), wk =   0.0138889
        k(  142) = (  -0.2500000   0.5000000   0.0000000), wk =   0.0138889
        k(  143) = (   0.5000000  -0.2500000   0.0000000), wk =   0.0138889
        k(  144) = (  -0.2500000   0.5833333   0.0000000), wk =   0.0138889
        k(  145) = (  -0.3333333   0.5833333   0.0000000), wk =   0.0138889
        k(  146) = (   0.5833333  -0.2500000   0.0000000), wk =   0.0138889
        k(  147) = (  -0.3333333  -0.2500000   0.0000000), wk =   0.0138889
        k(  148) = (   0.5833333  -0.3333333   0.0000000), wk =   0.0138889

     Dense  grid:    96043 G-vectors     FFT dimensions: (  30,  30, 243)

     Smooth grid:    24369 G-vectors     FFT dimensions: (  20,  20, 160)

     Largest allocated arrays     est. size (Mb)     dimensions
        Kohn-Sham Wavefunctions         0.56 Mb     (    3054,   12)
        NL pseudopotentials             1.49 Mb     (    3054,   32)
        Each V/rho on FFT grid          6.67 Mb     (  218700,   2)
        Each G-vector array             0.73 Mb     (   96043)
        G-vector shells                 0.04 Mb     (    4763)
     Largest temporary arrays     est. size (Mb)     dimensions
        Auxiliary wavefunctions         2.24 Mb     (    3054,   48)
        Each subspace H/S matrix        0.04 Mb     (      48,   48)
        Each <psi_i|beta_j> matrix      0.01 Mb     (      32,   12)

     The potential is recalculated from file :
     ../tmp/g.dos1.save/charge-density.dat


     negative rho (up, down):  7.839E-07 7.839E-07
     Starting wfc are   16 randomized atomic wfcs

     Band Structure Calculation
     Davidson diagonalization with overlap

     Computing kpt #:     1
     total cpu time spent up to now is        2.7 secs

     Computing kpt #:     2
     total cpu time spent up to now is        3.5 secs

     Computing kpt #:     3
     total cpu time spent up to now is        4.3 secs

     Computing kpt #:     4
     total cpu time spent up to now is        5.3 secs

     Computing kpt #:     5
     total cpu time spent up to now is        6.1 secs

     Computing kpt #:     6
     total cpu time spent up to now is        6.7 secs

     Computing kpt #:     7
     total cpu time spent up to now is        7.2 secs

     Computing kpt #:     8
     total cpu time spent up to now is        8.0 secs

     Computing kpt #:     9
     total cpu time spent up to now is        8.9 secs

     Computing kpt #:    10
     total cpu time spent up to now is        9.7 secs

     Computing kpt #:    11
     total cpu time spent up to now is       10.5 secs

     Computing kpt #:    12
     total cpu time spent up to now is       11.0 secs

     Computing kpt #:    13
     total cpu time spent up to now is       11.8 secs

     Computing kpt #:    14
     total cpu time spent up to now is       12.6 secs

     Computing kpt #:    15
     total cpu time spent up to now is       13.4 secs

     Computing kpt #:    16
     total cpu time spent up to now is       14.1 secs

     Computing kpt #:    17
     total cpu time spent up to now is       14.8 secs

     Computing kpt #:    18
     total cpu time spent up to now is       15.6 secs

     Computing kpt #:    19
     total cpu time spent up to now is       16.3 secs

     Computing kpt #:    20
     total cpu time spent up to now is       17.1 secs

     Computing kpt #:    21
     total cpu time spent up to now is       17.8 secs

     Computing kpt #:    22
     total cpu time spent up to now is       18.6 secs

     Computing kpt #:    23
     total cpu time spent up to now is       19.4 secs

     Computing kpt #:    24
     total cpu time spent up to now is       20.4 secs

     Computing kpt #:    25
     total cpu time spent up to now is       21.3 secs

     Computing kpt #:    26
     total cpu time spent up to now is       22.2 secs

     Computing kpt #:    27
     total cpu time spent up to now is       23.1 secs

     Computing kpt #:    28
     total cpu time spent up to now is       23.7 secs

     Computing kpt #:    29
     total cpu time spent up to now is       24.4 secs

     Computing kpt #:    30
     total cpu time spent up to now is       24.9 secs

     Computing kpt #:    31
     total cpu time spent up to now is       25.4 secs

     Computing kpt #:    32
     total cpu time spent up to now is       26.2 secs

     Computing kpt #:    33
     total cpu time spent up to now is       26.9 secs

     Computing kpt #:    34
     total cpu time spent up to now is       27.9 secs

     Computing kpt #:    35
     total cpu time spent up to now is       28.8 secs

     Computing kpt #:    36
     total cpu time spent up to now is       29.7 secs

     Computing kpt #:    37
     total cpu time spent up to now is       30.6 secs

     Computing kpt #:    38
     total cpu time spent up to now is       31.6 secs

     Computing kpt #:    39
     total cpu time spent up to now is       32.3 secs

     Computing kpt #:    40
     total cpu time spent up to now is       33.1 secs

     Computing kpt #:    41
     total cpu time spent up to now is       33.9 secs

     Computing kpt #:    42
     total cpu time spent up to now is       34.6 secs

     Computing kpt #:    43
     total cpu time spent up to now is       35.4 secs

     Computing kpt #:    44
     total cpu time spent up to now is       36.1 secs

     Computing kpt #:    45
     total cpu time spent up to now is       36.9 secs

     Computing kpt #:    46
     total cpu time spent up to now is       37.8 secs

     Computing kpt #:    47
     total cpu time spent up to now is       38.6 secs

     Computing kpt #:    48
     total cpu time spent up to now is       39.3 secs

     Computing kpt #:    49
     total cpu time spent up to now is       39.9 secs

     Computing kpt #:    50
     total cpu time spent up to now is       40.4 secs

     Computing kpt #:    51
     total cpu time spent up to now is       41.0 secs

     Computing kpt #:    52
     total cpu time spent up to now is       41.5 secs

     Computing kpt #:    53
     total cpu time spent up to now is       42.1 secs

     Computing kpt #:    54
     total cpu time spent up to now is       42.9 secs

     Computing kpt #:    55
     total cpu time spent up to now is       43.6 secs

     Computing kpt #:    56
     total cpu time spent up to now is       44.4 secs

     Computing kpt #:    57
     total cpu time spent up to now is       45.1 secs

     Computing kpt #:    58
     total cpu time spent up to now is       45.8 secs

     Computing kpt #:    59
     total cpu time spent up to now is       46.6 secs

     Computing kpt #:    60
     total cpu time spent up to now is       47.3 secs

     Computing kpt #:    61
     total cpu time spent up to now is       48.1 secs

     Computing kpt #:    62
     total cpu time spent up to now is       49.2 secs

     Computing kpt #:    63
     total cpu time spent up to now is       50.0 secs

     Computing kpt #:    64
     total cpu time spent up to now is       51.1 secs

     Computing kpt #:    65
     total cpu time spent up to now is       51.9 secs

     Computing kpt #:    66
     total cpu time spent up to now is       52.6 secs

     Computing kpt #:    67
     total cpu time spent up to now is       53.2 secs

     Computing kpt #:    68
     total cpu time spent up to now is       53.9 secs

     Computing kpt #:    69
     total cpu time spent up to now is       54.6 secs

     Computing kpt #:    70
     total cpu time spent up to now is       55.5 secs

     Computing kpt #:    71
     total cpu time spent up to now is       56.4 secs

     Computing kpt #:    72
     total cpu time spent up to now is       57.2 secs

     Computing kpt #:    73
     total cpu time spent up to now is       58.1 secs

     Computing kpt #:    74
     total cpu time spent up to now is       59.0 secs

     Computing kpt #:    75
     total cpu time spent up to now is       59.8 secs

     Computing kpt #:    76
     total cpu time spent up to now is       60.5 secs

     Computing kpt #:    77
     total cpu time spent up to now is       61.3 secs

     Computing kpt #:    78
     total cpu time spent up to now is       62.3 secs

     Computing kpt #:    79
     total cpu time spent up to now is       63.2 secs

     Computing kpt #:    80
     total cpu time spent up to now is       63.8 secs

     Computing kpt #:    81
     total cpu time spent up to now is       64.3 secs

     Computing kpt #:    82
     total cpu time spent up to now is       65.1 secs

     Computing kpt #:    83
     total cpu time spent up to now is       66.0 secs

     Computing kpt #:    84
     total cpu time spent up to now is       66.8 secs

     Computing kpt #:    85
     total cpu time spent up to now is       67.5 secs

     Computing kpt #:    86
     total cpu time spent up to now is       68.1 secs

     Computing kpt #:    87
     total cpu time spent up to now is       68.9 secs

     Computing kpt #:    88
     total cpu time spent up to now is       69.6 secs

     Computing kpt #:    89
     total cpu time spent up to now is       70.5 secs

     Computing kpt #:    90
     total cpu time spent up to now is       71.1 secs

     Computing kpt #:    91
     total cpu time spent up to now is       71.8 secs

     Computing kpt #:    92
     total cpu time spent up to now is       72.7 secs

     Computing kpt #:    93
     total cpu time spent up to now is       73.3 secs

     Computing kpt #:    94
     total cpu time spent up to now is       74.1 secs

     Computing kpt #:    95
     total cpu time spent up to now is       74.8 secs

     Computing kpt #:    96
     total cpu time spent up to now is       75.6 secs

     Computing kpt #:    97
     total cpu time spent up to now is       76.4 secs

     Computing kpt #:    98
     total cpu time spent up to now is       77.3 secs

     Computing kpt #:    99
     total cpu time spent up to now is       78.3 secs

     Computing kpt #:   100
     total cpu time spent up to now is       79.2 secs

     Computing kpt #:   101
     total cpu time spent up to now is       80.1 secs

     Computing kpt #:   102
     total cpu time spent up to now is       80.7 secs

     Computing kpt #:   103
     total cpu time spent up to now is       81.3 secs

     Computing kpt #:   104
     total cpu time spent up to now is       81.8 secs

     Computing kpt #:   105
     total cpu time spent up to now is       82.4 secs

     Computing kpt #:   106
     total cpu time spent up to now is       83.1 secs

     Computing kpt #:   107
     total cpu time spent up to now is       83.9 secs

     Computing kpt #:   108
     total cpu time spent up to now is       84.8 secs

     Computing kpt #:   109
     total cpu time spent up to now is       85.7 secs

     Computing kpt #:   110
     total cpu time spent up to now is       86.7 secs

     Computing kpt #:   111
     total cpu time spent up to now is       87.6 secs

     Computing kpt #:   112
     total cpu time spent up to now is       88.5 secs

     Computing kpt #:   113
     total cpu time spent up to now is       89.3 secs

     Computing kpt #:   114
     total cpu time spent up to now is       90.0 secs

     Computing kpt #:   115
     total cpu time spent up to now is       90.8 secs

     Computing kpt #:   116
     total cpu time spent up to now is       91.5 secs

     Computing kpt #:   117
     total cpu time spent up to now is       92.3 secs

     Computing kpt #:   118
     total cpu time spent up to now is       93.0 secs

     Computing kpt #:   119
     total cpu time spent up to now is       93.9 secs

     Computing kpt #:   120
     total cpu time spent up to now is       94.6 secs

     Computing kpt #:   121
     total cpu time spent up to now is       95.4 secs

     Computing kpt #:   122
     total cpu time spent up to now is       96.2 secs

     Computing kpt #:   123
     total cpu time spent up to now is       96.7 secs

     Computing kpt #:   124
     total cpu time spent up to now is       97.3 secs

     Computing kpt #:   125
     total cpu time spent up to now is       97.8 secs

     Computing kpt #:   126
     total cpu time spent up to now is       98.4 secs

     Computing kpt #:   127
     total cpu time spent up to now is       99.0 secs

     Computing kpt #:   128
     total cpu time spent up to now is       99.7 secs

     Computing kpt #:   129
     total cpu time spent up to now is      100.5 secs

     Computing kpt #:   130
     total cpu time spent up to now is      101.2 secs

     Computing kpt #:   131
     total cpu time spent up to now is      101.9 secs

     Computing kpt #:   132
     total cpu time spent up to now is      102.7 secs

     Computing kpt #:   133
     total cpu time spent up to now is      103.4 secs

     Computing kpt #:   134
     total cpu time spent up to now is      104.2 secs

     Computing kpt #:   135
     total cpu time spent up to now is      105.1 secs

     Computing kpt #:   136
     total cpu time spent up to now is      106.2 secs

     Computing kpt #:   137
     total cpu time spent up to now is      107.0 secs

     Computing kpt #:   138
     total cpu time spent up to now is      108.1 secs

     Computing kpt #:   139
     total cpu time spent up to now is      109.0 secs

     Computing kpt #:   140
     total cpu time spent up to now is      109.6 secs

     Computing kpt #:   141
     total cpu time spent up to now is      110.2 secs

     Computing kpt #:   142
     total cpu time spent up to now is      111.0 secs

     Computing kpt #:   143
     total cpu time spent up to now is      111.7 secs

     Computing kpt #:   144
     total cpu time spent up to now is      112.5 secs

     Computing kpt #:   145
     total cpu time spent up to now is      113.4 secs

     Computing kpt #:   146
     total cpu time spent up to now is      114.2 secs

     Computing kpt #:   147
     total cpu time spent up to now is      115.1 secs

     Computing kpt #:   148
     total cpu time spent up to now is      116.0 secs

     ethr =  6.25E-13,  avg # of iterations = 35.9

     total cpu time spent up to now is      116.0 secs

     End of band structure calculation

 ------ SPIN UP ------------


          k = 0.0000 0.0000 0.0000 (  3053 PWs)   bands (ev):

   -20.0597 -19.8880  -8.6107  -7.5531  -3.5754  -3.5730  -3.5644  -3.5574
     2.9355   3.3093   4.0299   5.1905

     occupation numbers 
     1.0000   1.0000   1.0000   1.0000   1.0000   1.0000   1.0000   1.0000
     0.0000   0.0000   0.0000   0.0000

          k = 0.0000 0.0962 0.0000 (  3052 PWs)   bands (ev):

   -19.8954 -19.7253  -8.4127  -7.3612  -4.2230  -4.2062  -3.9127  -3.8933
     3.1565   3.5325   4.2558   5.4144

     occupation numbers 
     1.0000   1.0000   1.0000   1.0000   1.0000   1.0000   1.0000   1.0000
     0.0000   0.0000   0.0000   0.0000

          k = 0.0000 0.1925 0.0000 (  3050 PWs)   bands (ev):

   -19.4040 -19.2389  -7.8235  -6.7912  -5.8593  -5.8241  -4.7023  -4.6803
     3.8193   4.2011   4.9333   6.0852

     occupation numbers 
     1.0000   1.0000   1.0000   1.0000   1.0000   1.0000   1.0000   1.0000
     0.0000   0.0000   0.0000   0.0000

          k = 0.0000 0.2887 0.0000 (  3048 PWs)   bands (ev):

   -18.5916 -18.4345  -7.9571  -7.9010  -6.8609  -5.8629  -5.5790  -5.5546
     4.9192   5.3048   6.0607   6.5211

     occupation numbers 
     1.0000   1.0000   1.0000   1.0000   1.0000   1.0000   1.0000   1.0000
     0.0000   0.0000   0.0000   0.0000

          k = 0.0000 0.3849 0.0000 (  3042 PWs)   bands (ev):

   -17.4706 -17.3241 -10.1602 -10.0841  -6.3098  -6.2838  -5.5735  -4.6294
     4.1203   4.6565   6.4443   6.8527

     occupation numbers 
     1.0000   1.0000   1.0000   1.0000   1.0000   1.0000   1.0000   1.0000
     0.0000   0.0000   0.0000   0.0000

          k = 0.0000 0.4811 0.0000 (  3054 PWs)   bands (ev):

   -16.0728 -15.9384 -12.2610 -12.1672  -6.7811  -6.7542  -4.1197  -3.2566
     1.9036   2.6282   6.8655   7.0372

     occupation numbers 
     1.0000   1.0000   1.0000   1.0000   1.0000   1.0000   1.0000   1.0000
     0.0000   0.0000   0.0000   0.0000

          k = 0.0000-0.5774 0.0000 (  3052 PWs)   bands (ev):

   -14.8113 -14.6816 -13.7646 -13.6642  -6.9429  -6.9158  -3.2450  -2.4543
     0.7596   1.5920   6.7798   6.9661

     occupation numbers 
     1.0000   1.0000   1.0000   1.0000   1.0000   1.0000   1.0000   1.0000
     0.0000   0.0000   0.0000   0.0000

          k = 0.0833 0.1443 0.0000 (  3051 PWs)   bands (ev):

   -19.5675 -19.4008  -8.0186  -6.9805  -5.2468  -5.2362  -4.5808  -4.5726
     3.5987   3.9785   4.7076   5.8621

     occupation numbers 
     1.0000   1.0000   1.0000   1.0000   1.0000   1.0000   1.0000   1.0000
     0.0000   0.0000   0.0000   0.0000

          k = 0.0833 0.2406 0.0000 (  3045 PWs)   bands (ev):

   -18.9156 -18.7554  -7.2422  -6.9590  -6.9239  -6.2301  -5.5809  -5.5573
     4.4816   4.8677   5.6111   6.7548

     occupation numbers 
     1.0000   1.0000   1.0000   1.0000   1.0000   1.0000   1.0000   1.0000
     0.0000   0.0000   0.0000   0.0000

          k = 0.0833 0.3368 0.0000 (  3033 PWs)   bands (ev):

   -17.9487 -17.7978  -9.0353  -8.9735  -6.4671  -6.4351  -6.1101  -5.1430
     5.2165   5.5647   5.8041   6.2180

     occupation numbers 
     1.0000   1.0000   1.0000   1.0000   1.0000   1.0000   1.0000   1.0000
     0.0000   0.0000   0.0000   0.0000

          k = 0.0833 0.4330 0.0000 (  3041 PWs)   bands (ev):

   -16.6861 -16.5468 -11.1597 -11.0768  -7.1009  -7.0652  -4.7059  -3.8055
     2.9203   3.4853   7.5077   7.6546

     occupation numbers 
     1.0000   1.0000   1.0000   1.0000   1.0000   1.0000   1.0000   1.0000
     0.0000   0.0000   0.0000   0.0000

          k = 0.0833 0.5292 0.0000 (  3043 PWs)   bands (ev):

   -15.2056 -15.0775 -13.1015 -13.0030  -7.4286  -7.3915  -3.3611  -2.5495
     1.0806   1.8115   7.5069   7.7010

     occupation numbers 
     1.0000   1.0000   1.0000   1.0000   1.0000   1.0000   1.0000   1.0000
     0.0000   0.0000   0.0000   0.0000

          k = 0.1667 0.2887 0.0000 (  3039 PWs)   bands (ev):

   -18.1091 -17.9569  -8.2749  -8.2563  -6.9293  -6.9174  -6.2895  -5.3194
     5.5813   5.7625   5.9084   5.9783

     occupation numbers 
     1.0000   1.0000   1.0000   1.0000   1.0000   1.0000   1.0000   1.0000
     0.0000   0.0000   0.0000   0.0000

          k = 0.1667 0.3849 0.0000 (  3045 PWs)   bands (ev):

   -16.9990 -16.8575 -10.0127  -9.9575  -7.9937  -7.9550  -5.0157  -4.1030
     3.7669   4.0316   7.1101   7.4976

     occupation numbers 
     1.0000   1.0000   1.0000   1.0000   1.0000   1.0000   1.0000   1.0000
     0.0000   0.0000   0.0000   0.0000

          k = 0.1667 0.4811 0.0000 (  3041 PWs)   bands (ev):

   -15.6210 -15.4918 -11.9296 -11.8461  -8.5734  -8.5223  -3.5594  -2.7239
     1.7715   2.2246   9.0235   9.2648

     occupation numbers 
     1.0000   1.0000   1.0000   1.0000   1.0000   1.0000   1.0000   1.0000
     0.0000   0.0000   0.0000   0.0000

          k = 0.1667 0.5774 0.0000 (  3008 PWs)   bands (ev):

   -14.3886 -14.2641 -13.3633 -13.2708  -8.7588  -8.7049  -2.6435  -1.8652
     0.6584   1.2146   9.2524   9.5149

     occupation numbers 
     1.0000   1.0000   1.0000   1.0000   1.0000   1.0000   1.0000   1.0000
     0.0000   0.0000   0.0000   0.0000

          k = 0.2500 0.4330 0.0000 (  3033 PWs)   bands (ev):

   -15.7680 -15.6393 -11.0298 -11.0040  -9.4590  -9.4403  -3.6355  -2.8192
     2.1968   2.3878   8.8205   9.1391

     occupation numbers 
     1.0000   1.0000   1.0000   1.0000   1.0000   1.0000   1.0000   1.0000
     0.0000   0.0000   0.0000   0.0000

          k = 0.2500 0.5292 0.0000 (  3013 PWs)   bands (ev):

   -14.3441 -14.2278 -12.4663 -12.3984 -10.1802 -10.1284  -2.2265  -1.4726
     0.6490   0.9051  10.1300  10.5361

     occupation numbers 
     1.0000   1.0000   1.0000   1.0000   1.0000   1.0000   1.0000   1.0000
     0.0000   0.0000   0.0000   0.0000

          k = 0.3333 0.5774 0.0000 (  3027 PWs)   bands (ev):

   -13.1272 -13.0981 -13.0507 -13.0176 -11.0615 -11.0296  -0.8666  -0.6751
    -0.3559  -0.1293   9.6830  10.5052

     occupation numbers 
     1.0000   1.0000   1.0000   1.0000   1.0000   1.0000   1.0000   1.0000
     0.0000   0.0000   0.0000   0.0000

          k =-0.0833 0.0481 0.0000 (  3052 PWs)   bands (ev):

   -19.8953 -19.7253  -8.4124  -7.3616  -4.2236  -4.2027  -3.9066  -3.9023
     3.1565   3.5324   4.2558   5.4144

     occupation numbers 
     1.0000   1.0000   1.0000   1.0000   1.0000   1.0000   1.0000   1.0000
     0.0000   0.0000   0.0000   0.0000

          k = 0.0833 0.0481 0.0000 (  3052 PWs)   bands (ev):

   -19.8953 -19.7253  -8.4124  -7.3616  -4.2236  -4.2027  -3.9066  -3.9023
     3.1565   3.5324   4.2558   5.4144

     occupation numbers 
     1.0000   1.0000   1.0000   1.0000   1.0000   1.0000   1.0000   1.0000
     0.0000   0.0000   0.0000   0.0000

          k =-0.1667 0.0962 0.0000 (  3050 PWs)   bands (ev):

   -19.4039 -19.2390  -7.8221  -6.7928  -5.8602  -5.8210  -4.6960  -4.6892
     3.8193   4.2006   4.9332   6.0845

     occupation numbers 
     1.0000   1.0000   1.0000   1.0000   1.0000   1.0000   1.0000   1.0000
     0.0000   0.0000   0.0000   0.0000

          k = 0.1667 0.0962 0.0000 (  3050 PWs)   bands (ev):

   -19.4039 -19.2390  -7.8221  -6.7928  -5.8602  -5.8210  -4.6960  -4.6892
     3.8193   4.2006   4.9332   6.0845

     occupation numbers 
     1.0000   1.0000   1.0000   1.0000   1.0000   1.0000   1.0000   1.0000
     0.0000   0.0000   0.0000   0.0000

          k =-0.2500 0.1443 0.0000 (  3048 PWs)   bands (ev):

   -18.5913 -18.4347  -7.9576  -7.8983  -6.8565  -5.8689  -5.5720  -5.5638
     4.9199   5.2968   6.0601   6.5172

     occupation numbers 
     1.0000   1.0000   1.0000   1.0000   1.0000   1.0000   1.0000   1.0000
     0.0000   0.0000   0.0000   0.0000

          k = 0.2500 0.1443 0.0000 (  3048 PWs)   bands (ev):

   -18.5913 -18.4347  -7.9576  -7.8983  -6.8565  -5.8689  -5.5720  -5.5638
     4.9199   5.2968   6.0601   6.5172

     occupation numbers 
     1.0000   1.0000   1.0000   1.0000   1.0000   1.0000   1.0000   1.0000
     0.0000   0.0000   0.0000   0.0000

          k =-0.3333 0.1925 0.0000 (  3042 PWs)   bands (ev):

   -17.4698 -17.3248 -10.1607 -10.0821  -6.3023  -6.2933  -5.5583  -4.6494
     4.1297   4.6611   6.4386   6.8706

     occupation numbers 
     1.0000   1.0000   1.0000   1.0000   1.0000   1.0000   1.0000   1.0000
     0.0000   0.0000   0.0000   0.0000

          k = 0.3333 0.1925 0.0000 (  3042 PWs)   bands (ev):

   -17.4698 -17.3248 -10.1607 -10.0821  -6.3023  -6.2933  -5.5583  -4.6494
     4.1297   4.6611   6.4386   6.8706

     occupation numbers 
     1.0000   1.0000   1.0000   1.0000   1.0000   1.0000   1.0000   1.0000
     0.0000   0.0000   0.0000   0.0000

          k =-0.4167 0.2406 0.0000 (  3054 PWs)   bands (ev):

   -16.0699 -15.9414 -12.2607 -12.1661  -6.7732  -6.7639  -4.0578  -3.3421
     2.0094   2.5539   6.9170   6.9827

     occupation numbers 
     1.0000   1.0000   1.0000   1.0000   1.0000   1.0000   1.0000   1.0000
     0.0000   0.0000   0.0000   0.0000

          k = 0.4167 0.2406 0.0000 (  3054 PWs)   bands (ev):

   -16.0699 -15.9414 -12.2607 -12.1661  -6.7732  -6.7639  -4.0578  -3.3421
     2.0094   2.5539   6.9170   6.9827

     occupation numbers 
     1.0000   1.0000   1.0000   1.0000   1.0000   1.0000   1.0000   1.0000
     0.0000   0.0000   0.0000   0.0000

          k = 0.5000-0.2887 0.0000 (  3052 PWs)   bands (ev):

   -14.7690 -14.7311 -13.7256 -13.6948  -6.9350  -6.9255  -3.0030  -2.7758
     1.0812   1.3574   6.8384   6.9038

     occupation numbers 
     1.0000   1.0000   1.0000   1.0000   1.0000   1.0000   1.0000   1.0000
     0.0000   0.0000   0.0000   0.0000

          k =-0.5000-0.2887 0.0000 (  3052 PWs)   bands (ev):

   -14.7690 -14.7311 -13.7256 -13.6948  -6.9350  -6.9255  -3.0030  -2.7758
     1.0812   1.3574   6.8384   6.9038

     occupation numbers 
     1.0000   1.0000   1.0000   1.0000   1.0000   1.0000   1.0000   1.0000
     0.0000   0.0000   0.0000   0.0000

          k =-0.0833 0.1443 0.0000 (  3051 PWs)   bands (ev):

   -19.5675 -19.4008  -8.0186  -6.9805  -5.2468  -5.2362  -4.5808  -4.5726
     3.5987   3.9785   4.7076   5.8621

     occupation numbers 
     1.0000   1.0000   1.0000   1.0000   1.0000   1.0000   1.0000   1.0000
     0.0000   0.0000   0.0000   0.0000

          k = 0.1667-0.0000 0.0000 (  3051 PWs)   bands (ev):

   -19.5674 -19.4008  -8.0177  -6.9815  -5.2584  -5.2211  -4.5842  -4.5729
     3.5987   3.9782   4.7076   5.8619

     occupation numbers 
     1.0000   1.0000   1.0000   1.0000   1.0000   1.0000   1.0000   1.0000
     0.0000   0.0000   0.0000   0.0000

          k =-0.0833 0.2406 0.0000 (  3045 PWs)   bands (ev):

   -18.9156 -18.7554  -7.2422  -6.9590  -6.9239  -6.2301  -5.5809  -5.5573
     4.4816   4.8677   5.6111   6.7548

     occupation numbers 
     1.0000   1.0000   1.0000   1.0000   1.0000   1.0000   1.0000   1.0000
     0.0000   0.0000   0.0000   0.0000

          k =-0.1667 0.1925 0.0000 (  3045 PWs)   bands (ev):

   -18.9155 -18.7555  -7.2403  -6.9593  -6.9227  -6.2321  -5.5771  -5.5625
     4.4816   4.8666   5.6110   6.7513

     occupation numbers 
     1.0000   1.0000   1.0000   1.0000   1.0000   1.0000   1.0000   1.0000
     0.0000   0.0000   0.0000   0.0000

          k = 0.2500 0.0481 0.0000 (  3045 PWs)   bands (ev):

   -18.9154 -18.7556  -7.2386  -6.9663  -6.9141  -6.2340  -5.5814  -5.5601
     4.4818   4.8662   5.6110   6.7514

     occupation numbers 
     1.0000   1.0000   1.0000   1.0000   1.0000   1.0000   1.0000   1.0000
     0.0000   0.0000   0.0000   0.0000

          k =-0.1667-0.1925 0.0000 (  3045 PWs)   bands (ev):

   -18.9155 -18.7555  -7.2403  -6.9593  -6.9227  -6.2321  -5.5771  -5.5625
     4.4816   4.8666   5.6110   6.7513

     occupation numbers 
     1.0000   1.0000   1.0000   1.0000   1.0000   1.0000   1.0000   1.0000
     0.0000   0.0000   0.0000   0.0000

          k = 0.2500-0.0481 0.0000 (  3045 PWs)   bands (ev):

   -18.9154 -18.7556  -7.2386  -6.9663  -6.9141  -6.2340  -5.5814  -5.5601
     4.4818   4.8662   5.6110   6.7514

     occupation numbers 
     1.0000   1.0000   1.0000   1.0000   1.0000   1.0000   1.0000   1.0000
     0.0000   0.0000   0.0000   0.0000

          k =-0.0833 0.3368 0.0000 (  3033 PWs)   bands (ev):

   -17.9487 -17.7978  -9.0353  -8.9735  -6.4671  -6.4351  -6.1101  -5.1430
     5.2165   5.5647   5.8041   6.2180

     occupation numbers 
     1.0000   1.0000   1.0000   1.0000   1.0000   1.0000   1.0000   1.0000
     0.0000   0.0000   0.0000   0.0000

          k =-0.2500 0.2406 0.0000 (  3033 PWs)   bands (ev):

   -17.9484 -17.7982  -9.0351  -8.9722  -6.4643  -6.4398  -6.1035  -5.1514
     5.2067   5.5822   5.8003   6.2268

     occupation numbers 
     1.0000   1.0000   1.0000   1.0000   1.0000   1.0000   1.0000   1.0000
     0.0000   0.0000   0.0000   0.0000

          k = 0.3333 0.0962 0.0000 (  3033 PWs)   bands (ev):

   -17.9482 -17.7983  -9.0383  -8.9683  -6.4658  -6.4390  -6.1013  -5.1541
     5.1397   5.6609   5.8049   6.2183

     occupation numbers 
     1.0000   1.0000   1.0000   1.0000   1.0000   1.0000   1.0000   1.0000
     0.0000   0.0000   0.0000   0.0000

          k =-0.2500-0.2406 0.0000 (  3033 PWs)   bands (ev):

   -17.9484 -17.7982  -9.0351  -8.9722  -6.4643  -6.4398  -6.1035  -5.1514
     5.2067   5.5822   5.8003   6.2268

     occupation numbers 
     1.0000   1.0000   1.0000   1.0000   1.0000   1.0000   1.0000   1.0000
     0.0000   0.0000   0.0000   0.0000

          k = 0.3333-0.0962 0.0000 (  3033 PWs)   bands (ev):

   -17.9482 -17.7983  -9.0383  -8.9683  -6.4658  -6.4390  -6.1013  -5.1541
     5.1397   5.6609   5.8049   6.2183

     occupation numbers 
     1.0000   1.0000   1.0000   1.0000   1.0000   1.0000   1.0000   1.0000
     0.0000   0.0000   0.0000   0.0000

          k =-0.0833 0.4330 0.0000 (  3041 PWs)   bands (ev):

   -16.6861 -16.5468 -11.1597 -11.0768  -7.1009  -7.0652  -4.7059  -3.8055
     2.9203   3.4853   7.5077   7.6546

     occupation numbers 
     1.0000   1.0000   1.0000   1.0000   1.0000   1.0000   1.0000   1.0000
     0.0000   0.0000   0.0000   0.0000

          k =-0.3333 0.2887 0.0000 (  3041 PWs)   bands (ev):

   -16.6848 -16.5480 -11.1595 -11.0756  -7.0982  -7.0697  -4.6790  -3.8419
     2.9690   3.4542   7.4817   7.7675

     occupation numbers 
     1.0000   1.0000   1.0000   1.0000   1.0000   1.0000   1.0000   1.0000
     0.0000   0.0000   0.0000   0.0000

          k = 0.4167 0.1443 0.0000 (  3041 PWs)   bands (ev):

   -16.6846 -16.5483 -11.1612 -11.0736  -7.0988  -7.0694  -4.6761  -3.8447
     2.9161   3.5138   7.4923   7.7137

     occupation numbers 
     1.0000   1.0000   1.0000   1.0000   1.0000   1.0000   1.0000   1.0000
     0.0000   0.0000   0.0000   0.0000

          k =-0.3333-0.2887 0.0000 (  3041 PWs)   bands (ev):

   -16.6848 -16.5480 -11.1595 -11.0756  -7.0982  -7.0697  -4.6790  -3.8419
     2.9690   3.4542   7.4817   7.7675

     occupation numbers 
     1.0000   1.0000   1.0000   1.0000   1.0000   1.0000   1.0000   1.0000
     0.0000   0.0000   0.0000   0.0000

          k = 0.4167-0.1443 0.0000 (  3041 PWs)   bands (ev):

   -16.6846 -16.5483 -11.1612 -11.0736  -7.0988  -7.0694  -4.6761  -3.8447
     2.9161   3.5138   7.4923   7.7137

     occupation numbers 
     1.0000   1.0000   1.0000   1.0000   1.0000   1.0000   1.0000   1.0000
     0.0000   0.0000   0.0000   0.0000

          k =-0.0833 0.5292 0.0000 (  3043 PWs)   bands (ev):

   -15.2056 -15.0775 -13.1015 -13.0030  -7.4286  -7.3915  -3.3611  -2.5495
     1.0806   1.8115   7.5069   7.7010

     occupation numbers 
     1.0000   1.0000   1.0000   1.0000   1.0000   1.0000   1.0000   1.0000
     0.0000   0.0000   0.0000   0.0000

          k =-0.4167 0.3368 0.0000 (  3043 PWs)   bands (ev):

   -15.1973 -15.0868 -13.0966 -13.0056  -7.4260  -7.3958  -3.2261  -2.7379
     1.2885   1.6667   7.5594   7.6466

     occupation numbers 
     1.0000   1.0000   1.0000   1.0000   1.0000   1.0000   1.0000   1.0000
     0.0000   0.0000   0.0000   0.0000

          k = 0.5000 0.1925 0.0000 (  3043 PWs)   bands (ev):

   -15.1971 -15.0870 -13.0980 -13.0041  -7.4262  -7.3957  -3.2246  -2.7382
     1.2478   1.7084   7.5589   7.6443

     occupation numbers 
     1.0000   1.0000   1.0000   1.0000   1.0000   1.0000   1.0000   1.0000
     0.0000   0.0000   0.0000   0.0000

          k =-0.4167-0.3368 0.0000 (  3043 PWs)   bands (ev):

   -15.1973 -15.0868 -13.0966 -13.0056  -7.4260  -7.3958  -3.2261  -2.7379
     1.2885   1.6667   7.5594   7.6466

     occupation numbers 
     1.0000   1.0000   1.0000   1.0000   1.0000   1.0000   1.0000   1.0000
     0.0000   0.0000   0.0000   0.0000

          k = 0.5000-0.1925 0.0000 (  3043 PWs)   bands (ev):

   -15.1971 -15.0870 -13.0980 -13.0041  -7.4262  -7.3957  -3.2246  -2.7382
     1.2478   1.7084   7.5589   7.6443

     occupation numbers 
     1.0000   1.0000   1.0000   1.0000   1.0000   1.0000   1.0000   1.0000
     0.0000   0.0000   0.0000   0.0000

          k =-0.1667 0.2887 0.0000 (  3039 PWs)   bands (ev):

   -18.1091 -17.9569  -8.2749  -8.2563  -6.9293  -6.9174  -6.2895  -5.3194
     5.5813   5.7625   5.9084   5.9783

     occupation numbers 
     1.0000   1.0000   1.0000   1.0000   1.0000   1.0000   1.0000   1.0000
     0.0000   0.0000   0.0000   0.0000

          k = 0.3333-0.0000 0.0000 (  3039 PWs)   bands (ev):

   -18.1087 -17.9573  -8.2956  -8.2321  -6.9447  -6.9058  -6.2846  -5.3254
     5.5827   5.5973   5.9699   6.1010

     occupation numbers 
     1.0000   1.0000   1.0000   1.0000   1.0000   1.0000   1.0000   1.0000
     0.0000   0.0000   0.0000   0.0000

          k =-0.1667 0.3849 0.0000 (  3045 PWs)   bands (ev):

   -16.9990 -16.8575 -10.0127  -9.9575  -7.9937  -7.9550  -5.0157  -4.1030
     3.7669   4.0316   7.1101   7.4976

     occupation numbers 
     1.0000   1.0000   1.0000   1.0000   1.0000   1.0000   1.0000   1.0000
     0.0000   0.0000   0.0000   0.0000

          k =-0.2500 0.3368 0.0000 (  3045 PWs)   bands (ev):

   -16.9986 -16.8578 -10.0123  -9.9569  -7.9925  -7.9573  -5.0081  -4.1131
     3.7692   4.0370   7.1088   7.5047

     occupation numbers 
     1.0000   1.0000   1.0000   1.0000   1.0000   1.0000   1.0000   1.0000
     0.0000   0.0000   0.0000   0.0000

          k = 0.4167 0.0481 0.0000 (  3045 PWs)   bands (ev):

   -16.9981 -16.8583 -10.0229  -9.9446  -8.0002  -7.9514  -5.0009  -4.1214
     3.6167   4.2102   7.1104   7.4916

     occupation numbers 
     1.0000   1.0000   1.0000   1.0000   1.0000   1.0000   1.0000   1.0000
     0.0000   0.0000   0.0000   0.0000

          k =-0.2500-0.3368 0.0000 (  3045 PWs)   bands (ev):

   -16.9986 -16.8578 -10.0123  -9.9569  -7.9925  -7.9573  -5.0081  -4.1131
     3.7692   4.0370   7.1088   7.5047

     occupation numbers 
     1.0000   1.0000   1.0000   1.0000   1.0000   1.0000   1.0000   1.0000
     0.0000   0.0000   0.0000   0.0000

          k = 0.4167-0.0481 0.0000 (  3045 PWs)   bands (ev):

   -16.9981 -16.8583 -10.0229  -9.9446  -8.0002  -7.9514  -5.0009  -4.1214
     3.6167   4.2102   7.1104   7.4916

     occupation numbers 
     1.0000   1.0000   1.0000   1.0000   1.0000   1.0000   1.0000   1.0000
     0.0000   0.0000   0.0000   0.0000

          k =-0.1667 0.4811 0.0000 (  3041 PWs)   bands (ev):

   -15.6210 -15.4918 -11.9296 -11.8461  -8.5734  -8.5223  -3.5594  -2.7239
     1.7715   2.2246   9.0235   9.2648

     occupation numbers 
     1.0000   1.0000   1.0000   1.0000   1.0000   1.0000   1.0000   1.0000
     0.0000   0.0000   0.0000   0.0000

          k =-0.3333 0.3849 0.0000 (  3041 PWs)   bands (ev):

   -15.6188 -15.4942 -11.9286 -11.8457  -8.5729  -8.5242  -3.5108  -2.7924
     1.8326   2.1950   9.0059   9.4037

     occupation numbers 
     1.0000   1.0000   1.0000   1.0000   1.0000   1.0000   1.0000   1.0000
     0.0000   0.0000   0.0000   0.0000

          k = 0.5000 0.0962 0.0000 (  3041 PWs)   bands (ev):

   -15.6181 -15.4949 -11.9334 -11.8403  -8.5752  -8.5226  -3.5030  -2.7988
     1.7103   2.3268   9.0199   9.2592

     occupation numbers 
     1.0000   1.0000   1.0000   1.0000   1.0000   1.0000   1.0000   1.0000
     0.0000   0.0000   0.0000   0.0000

          k =-0.3333-0.3849 0.0000 (  3041 PWs)   bands (ev):

   -15.6188 -15.4942 -11.9286 -11.8457  -8.5729  -8.5242  -3.5108  -2.7924
     1.8326   2.1950   9.0059   9.4037

     occupation numbers 
     1.0000   1.0000   1.0000   1.0000   1.0000   1.0000   1.0000   1.0000
     0.0000   0.0000   0.0000   0.0000

          k = 0.5000-0.0962 0.0000 (  3041 PWs)   bands (ev):

   -15.6181 -15.4949 -11.9334 -11.8403  -8.5752  -8.5226  -3.5030  -2.7988
     1.7103   2.3268   9.0199   9.2592

     occupation numbers 
     1.0000   1.0000   1.0000   1.0000   1.0000   1.0000   1.0000   1.0000
     0.0000   0.0000   0.0000   0.0000

          k =-0.4167 0.4330 0.0000 (  3008 PWs)   bands (ev):

   -14.3479 -14.3116 -13.3282 -13.2977  -8.7590  -8.7063  -2.4072  -2.1846
     0.8484   1.1250   9.2925   9.4750

     occupation numbers 
     1.0000   1.0000   1.0000   1.0000   1.0000   1.0000   1.0000   1.0000
     0.0000   0.0000   0.0000   0.0000

          k = 0.5833 0.1443 0.0000 (  3008 PWs)   bands (ev):

   -14.3479 -14.3116 -13.3282 -13.2977  -8.7590  -8.7063  -2.4072  -2.1846
     0.8484   1.1250   9.2925   9.4750

     occupation numbers 
     1.0000   1.0000   1.0000   1.0000   1.0000   1.0000   1.0000   1.0000
     0.0000   0.0000   0.0000   0.0000

          k =-0.2500 0.4330 0.0000 (  3033 PWs)   bands (ev):

   -15.7680 -15.6393 -11.0298 -11.0040  -9.4590  -9.4403  -3.6355  -2.8192
     2.1968   2.3878   8.8205   9.1391

     occupation numbers 
     1.0000   1.0000   1.0000   1.0000   1.0000   1.0000   1.0000   1.0000
     0.0000   0.0000   0.0000   0.0000

          k = 0.5000-0.0000 0.0000 (  3033 PWs)   bands (ev):

   -15.7666 -15.6408 -11.0592 -10.9709  -9.4829  -9.4202  -3.6131  -2.8451
     1.9786   2.6338   8.8234   9.0750

     occupation numbers 
     1.0000   1.0000   1.0000   1.0000   1.0000   1.0000   1.0000   1.0000
     0.0000   0.0000   0.0000   0.0000

          k =-0.2500 0.5292 0.0000 (  3013 PWs)   bands (ev):

   -14.3441 -14.2278 -12.4663 -12.3984 -10.1802 -10.1284  -2.2265  -1.4726
     0.6490   0.9051  10.1300  10.5361

     occupation numbers 
     1.0000   1.0000   1.0000   1.0000   1.0000   1.0000   1.0000   1.0000
     0.0000   0.0000   0.0000   0.0000

          k =-0.3333 0.4811 0.0000 (  3013 PWs)   bands (ev):

   -14.3384 -14.2345 -12.4630 -12.3997 -10.1819 -10.1280  -2.1399  -1.6042
     0.6973   0.9123  10.0775  10.5818

     occupation numbers 
     1.0000   1.0000   1.0000   1.0000   1.0000   1.0000   1.0000   1.0000
     0.0000   0.0000   0.0000   0.0000

          k = 0.5833 0.0481 0.0000 (  3013 PWs)   bands (ev):

   -14.3365 -14.2363 -12.4783 -12.3832 -10.1884 -10.1227  -2.1208  -1.6120
     0.4902   1.1182   9.9506  10.7031

     occupation numbers 
     1.0000   1.0000   1.0000   1.0000   1.0000   1.0000   1.0000   1.0000
     0.0000   0.0000   0.0000   0.0000

          k =-0.3333-0.4811 0.0000 (  3013 PWs)   bands (ev):

   -14.3384 -14.2345 -12.4630 -12.3997 -10.1819 -10.1280  -2.1399  -1.6042
     0.6973   0.9123  10.0775  10.5818

     occupation numbers 
     1.0000   1.0000   1.0000   1.0000   1.0000   1.0000   1.0000   1.0000
     0.0000   0.0000   0.0000   0.0000

          k = 0.5833-0.0481 0.0000 (  3013 PWs)   bands (ev):

   -14.3365 -14.2363 -12.4783 -12.3832 -10.1884 -10.1227  -2.1208  -1.6120
     0.4902   1.1182   9.9506  10.7031

     occupation numbers 
     1.0000   1.0000   1.0000   1.0000   1.0000   1.0000   1.0000   1.0000
     0.0000   0.0000   0.0000   0.0000

 ------ SPIN DOWN ----------


          k = 0.0000 0.0000 0.0000 (  3053 PWs)   bands (ev):

   -20.0597 -19.8880  -8.6107  -7.5531  -3.5755  -3.5730  -3.5644  -3.5574
     2.9355   3.3092   4.0299   5.1905

     occupation numbers 
     1.0000   1.0000   1.0000   1.0000   1.0000   1.0000   1.0000   1.0000
     0.0000   0.0000   0.0000   0.0000

          k = 0.0000 0.0962 0.0000 (  3052 PWs)   bands (ev):

   -19.8954 -19.7253  -8.4127  -7.3612  -4.2230  -4.2062  -3.9127  -3.8933
     3.1565   3.5325   4.2558   5.4144

     occupation numbers 
     1.0000   1.0000   1.0000   1.0000   1.0000   1.0000   1.0000   1.0000
     0.0000   0.0000   0.0000   0.0000

          k = 0.0000 0.1925 0.0000 (  3050 PWs)   bands (ev):

   -19.4040 -19.2389  -7.8235  -6.7912  -5.8593  -5.8241  -4.7023  -4.6803
     3.8193   4.2011   4.9333   6.0852

     occupation numbers 
     1.0000   1.0000   1.0000   1.0000   1.0000   1.0000   1.0000   1.0000
     0.0000   0.0000   0.0000   0.0000

          k = 0.0000 0.2887 0.0000 (  3048 PWs)   bands (ev):

   -18.5916 -18.4345  -7.9571  -7.9010  -6.8609  -5.8629  -5.5790  -5.5546
     4.9192   5.3048   6.0607   6.5211

     occupation numbers 
     1.0000   1.0000   1.0000   1.0000   1.0000   1.0000   1.0000   1.0000
     0.0000   0.0000   0.0000   0.0000

          k = 0.0000 0.3849 0.0000 (  3042 PWs)   bands (ev):

   -17.4706 -17.3241 -10.1602 -10.0841  -6.3098  -6.2838  -5.5735  -4.6294
     4.1203   4.6565   6.4443   6.8526

     occupation numbers 
     1.0000   1.0000   1.0000   1.0000   1.0000   1.0000   1.0000   1.0000
     0.0000   0.0000   0.0000   0.0000

          k = 0.0000 0.4811 0.0000 (  3054 PWs)   bands (ev):

   -16.0728 -15.9384 -12.2610 -12.1672  -6.7811  -6.7542  -4.1197  -3.2566
     1.9036   2.6282   6.8655   7.0372

     occupation numbers 
     1.0000   1.0000   1.0000   1.0000   1.0000   1.0000   1.0000   1.0000
     0.0000   0.0000   0.0000   0.0000

          k = 0.0000-0.5774 0.0000 (  3052 PWs)   bands (ev):

   -14.8114 -14.6816 -13.7646 -13.6642  -6.9429  -6.9158  -3.2450  -2.4543
     0.7596   1.5920   6.7798   6.9661

     occupation numbers 
     1.0000   1.0000   1.0000   1.0000   1.0000   1.0000   1.0000   1.0000
     0.0000   0.0000   0.0000   0.0000

          k = 0.0833 0.1443 0.0000 (  3051 PWs)   bands (ev):

   -19.5675 -19.4008  -8.0186  -6.9805  -5.2468  -5.2362  -4.5808  -4.5726
     3.5987   3.9785   4.7076   5.8621

     occupation numbers 
     1.0000   1.0000   1.0000   1.0000   1.0000   1.0000   1.0000   1.0000
     0.0000   0.0000   0.0000   0.0000

          k = 0.0833 0.2406 0.0000 (  3045 PWs)   bands (ev):

   -18.9156 -18.7554  -7.2422  -6.9590  -6.9239  -6.2301  -5.5809  -5.5573
     4.4816   4.8677   5.6111   6.7548

     occupation numbers 
     1.0000   1.0000   1.0000   1.0000   1.0000   1.0000   1.0000   1.0000
     0.0000   0.0000   0.0000   0.0000

          k = 0.0833 0.3368 0.0000 (  3033 PWs)   bands (ev):

   -17.9487 -17.7978  -9.0353  -8.9735  -6.4671  -6.4351  -6.1101  -5.1430
     5.2165   5.5647   5.8041   6.2180

     occupation numbers 
     1.0000   1.0000   1.0000   1.0000   1.0000   1.0000   1.0000   1.0000
     0.0000   0.0000   0.0000   0.0000

          k = 0.0833 0.4330 0.0000 (  3041 PWs)   bands (ev):

   -16.6861 -16.5468 -11.1597 -11.0768  -7.1009  -7.0652  -4.7059  -3.8055
     2.9203   3.4853   7.5077   7.6546

     occupation numbers 
     1.0000   1.0000   1.0000   1.0000   1.0000   1.0000   1.0000   1.0000
     0.0000   0.0000   0.0000   0.0000

          k = 0.0833 0.5292 0.0000 (  3043 PWs)   bands (ev):

   -15.2056 -15.0775 -13.1015 -13.0030  -7.4286  -7.3915  -3.3611  -2.5495
     1.0806   1.8115   7.5069   7.7010

     occupation numbers 
     1.0000   1.0000   1.0000   1.0000   1.0000   1.0000   1.0000   1.0000
     0.0000   0.0000   0.0000   0.0000

          k = 0.1667 0.2887 0.0000 (  3039 PWs)   bands (ev):

   -18.1091 -17.9569  -8.2749  -8.2563  -6.9293  -6.9174  -6.2895  -5.3194
     5.5813   5.7625   5.9084   5.9783

     occupation numbers 
     1.0000   1.0000   1.0000   1.0000   1.0000   1.0000   1.0000   1.0000
     0.0000   0.0000   0.0000   0.0000

          k = 0.1667 0.3849 0.0000 (  3045 PWs)   bands (ev):

   -16.9990 -16.8575 -10.0127  -9.9575  -7.9937  -7.9550  -5.0157  -4.1030
     3.7669   4.0316   7.1101   7.4976

     occupation numbers 
     1.0000   1.0000   1.0000   1.0000   1.0000   1.0000   1.0000   1.0000
     0.0000   0.0000   0.0000   0.0000

          k = 0.1667 0.4811 0.0000 (  3041 PWs)   bands (ev):

   -15.6210 -15.4918 -11.9296 -11.8461  -8.5734  -8.5223  -3.5594  -2.7239
     1.7715   2.2246   9.0235   9.2648

     occupation numbers 
     1.0000   1.0000   1.0000   1.0000   1.0000   1.0000   1.0000   1.0000
     0.0000   0.0000   0.0000   0.0000

          k = 0.1667 0.5774 0.0000 (  3008 PWs)   bands (ev):

   -14.3886 -14.2641 -13.3633 -13.2708  -8.7588  -8.7049  -2.6435  -1.8652
     0.6584   1.2146   9.2524   9.5149

     occupation numbers 
     1.0000   1.0000   1.0000   1.0000   1.0000   1.0000   1.0000   1.0000
     0.0000   0.0000   0.0000   0.0000

          k = 0.2500 0.4330 0.0000 (  3033 PWs)   bands (ev):

   -15.7680 -15.6393 -11.0298 -11.0040  -9.4590  -9.4403  -3.6355  -2.8192
     2.1968   2.3878   8.8205   9.1391

     occupation numbers 
     1.0000   1.0000   1.0000   1.0000   1.0000   1.0000   1.0000   1.0000
     0.0000   0.0000   0.0000   0.0000

          k = 0.2500 0.5292 0.0000 (  3013 PWs)   bands (ev):

   -14.3441 -14.2278 -12.4663 -12.3984 -10.1802 -10.1284  -2.2265  -1.4726
     0.6490   0.9051  10.1300  10.5361

     occupation numbers 
     1.0000   1.0000   1.0000   1.0000   1.0000   1.0000   1.0000   1.0000
     0.0000   0.0000   0.0000   0.0000

          k = 0.3333 0.5774 0.0000 (  3027 PWs)   bands (ev):

   -13.1272 -13.0981 -13.0507 -13.0176 -11.0615 -11.0296  -0.8666  -0.6750
    -0.3559  -0.1293   9.6830  10.5052

     occupation numbers 
     1.0000   1.0000   1.0000   1.0000   1.0000   1.0000   1.0000   1.0000
     0.0000   0.0000   0.0000   0.0000

          k =-0.0833 0.0481 0.0000 (  3052 PWs)   bands (ev):

   -19.8953 -19.7253  -8.4124  -7.3616  -4.2236  -4.2027  -3.9066  -3.9023
     3.1565   3.5324   4.2557   5.4144

     occupation numbers 
     1.0000   1.0000   1.0000   1.0000   1.0000   1.0000   1.0000   1.0000
     0.0000   0.0000   0.0000   0.0000

          k = 0.0833 0.0481 0.0000 (  3052 PWs)   bands (ev):

   -19.8953 -19.7253  -8.4124  -7.3616  -4.2236  -4.2027  -3.9066  -3.9023
     3.1565   3.5324   4.2557   5.4144

     occupation numbers 
     1.0000   1.0000   1.0000   1.0000   1.0000   1.0000   1.0000   1.0000
     0.0000   0.0000   0.0000   0.0000

          k =-0.1667 0.0962 0.0000 (  3050 PWs)   bands (ev):

   -19.4039 -19.2390  -7.8221  -6.7928  -5.8602  -5.8210  -4.6960  -4.6892
     3.8193   4.2006   4.9332   6.0845

     occupation numbers 
     1.0000   1.0000   1.0000   1.0000   1.0000   1.0000   1.0000   1.0000
     0.0000   0.0000   0.0000   0.0000

          k = 0.1667 0.0962 0.0000 (  3050 PWs)   bands (ev):

   -19.4039 -19.2390  -7.8221  -6.7928  -5.8602  -5.8210  -4.6960  -4.6892
     3.8193   4.2006   4.9332   6.0845

     occupation numbers 
     1.0000   1.0000   1.0000   1.0000   1.0000   1.0000   1.0000   1.0000
     0.0000   0.0000   0.0000   0.0000

          k =-0.2500 0.1443 0.0000 (  3048 PWs)   bands (ev):

   -18.5913 -18.4347  -7.9576  -7.8983  -6.8565  -5.8689  -5.5720  -5.5638
     4.9199   5.2968   6.0601   6.5172

     occupation numbers 
     1.0000   1.0000   1.0000   1.0000   1.0000   1.0000   1.0000   1.0000
     0.0000   0.0000   0.0000   0.0000

          k = 0.2500 0.1443 0.0000 (  3048 PWs)   bands (ev):

   -18.5913 -18.4347  -7.9576  -7.8983  -6.8565  -5.8689  -5.5720  -5.5638
     4.9199   5.2968   6.0601   6.5172

     occupation numbers 
     1.0000   1.0000   1.0000   1.0000   1.0000   1.0000   1.0000   1.0000
     0.0000   0.0000   0.0000   0.0000

          k =-0.3333 0.1925 0.0000 (  3042 PWs)   bands (ev):

   -17.4698 -17.3248 -10.1607 -10.0821  -6.3023  -6.2933  -5.5583  -4.6494
     4.1297   4.6611   6.4386   6.8706

     occupation numbers 
     1.0000   1.0000   1.0000   1.0000   1.0000   1.0000   1.0000   1.0000
     0.0000   0.0000   0.0000   0.0000

          k = 0.3333 0.1925 0.0000 (  3042 PWs)   bands (ev):

   -17.4698 -17.3248 -10.1607 -10.0821  -6.3023  -6.2933  -5.5583  -4.6494
     4.1297   4.6611   6.4386   6.8706

     occupation numbers 
     1.0000   1.0000   1.0000   1.0000   1.0000   1.0000   1.0000   1.0000
     0.0000   0.0000   0.0000   0.0000

          k =-0.4167 0.2406 0.0000 (  3054 PWs)   bands (ev):

   -16.0699 -15.9414 -12.2607 -12.1661  -6.7732  -6.7639  -4.0578  -3.3421
     2.0094   2.5539   6.9170   6.9827

     occupation numbers 
     1.0000   1.0000   1.0000   1.0000   1.0000   1.0000   1.0000   1.0000
     0.0000   0.0000   0.0000   0.0000

          k = 0.4167 0.2406 0.0000 (  3054 PWs)   bands (ev):

   -16.0699 -15.9414 -12.2607 -12.1661  -6.7732  -6.7639  -4.0578  -3.3421
     2.0094   2.5539   6.9170   6.9827

     occupation numbers 
     1.0000   1.0000   1.0000   1.0000   1.0000   1.0000   1.0000   1.0000
     0.0000   0.0000   0.0000   0.0000

          k = 0.5000-0.2887 0.0000 (  3052 PWs)   bands (ev):

   -14.7690 -14.7311 -13.7256 -13.6948  -6.9350  -6.9255  -3.0030  -2.7758
     1.0812   1.3574   6.8384   6.9038

     occupation numbers 
     1.0000   1.0000   1.0000   1.0000   1.0000   1.0000   1.0000   1.0000
     0.0000   0.0000   0.0000   0.0000

          k =-0.5000-0.2887 0.0000 (  3052 PWs)   bands (ev):

   -14.7690 -14.7311 -13.7256 -13.6948  -6.9350  -6.9255  -3.0030  -2.7758
     1.0812   1.3574   6.8384   6.9038

     occupation numbers 
     1.0000   1.0000   1.0000   1.0000   1.0000   1.0000   1.0000   1.0000
     0.0000   0.0000   0.0000   0.0000

          k =-0.0833 0.1443 0.0000 (  3051 PWs)   bands (ev):

   -19.5675 -19.4008  -8.0186  -6.9805  -5.2468  -5.2362  -4.5808  -4.5726
     3.5987   3.9785   4.7076   5.8621

     occupation numbers 
     1.0000   1.0000   1.0000   1.0000   1.0000   1.0000   1.0000   1.0000
     0.0000   0.0000   0.0000   0.0000

          k = 0.1667-0.0000 0.0000 (  3051 PWs)   bands (ev):

   -19.5674 -19.4008  -8.0177  -6.9815  -5.2584  -5.2211  -4.5842  -4.5729
     3.5987   3.9782   4.7076   5.8619

     occupation numbers 
     1.0000   1.0000   1.0000   1.0000   1.0000   1.0000   1.0000   1.0000
     0.0000   0.0000   0.0000   0.0000

          k =-0.0833 0.2406 0.0000 (  3045 PWs)   bands (ev):

   -18.9156 -18.7554  -7.2422  -6.9590  -6.9239  -6.2301  -5.5809  -5.5573
     4.4816   4.8677   5.6111   6.7548

     occupation numbers 
     1.0000   1.0000   1.0000   1.0000   1.0000   1.0000   1.0000   1.0000
     0.0000   0.0000   0.0000   0.0000

          k =-0.1667 0.1925 0.0000 (  3045 PWs)   bands (ev):

   -18.9155 -18.7555  -7.2403  -6.9593  -6.9227  -6.2321  -5.5771  -5.5625
     4.4816   4.8666   5.6110   6.7513

     occupation numbers 
     1.0000   1.0000   1.0000   1.0000   1.0000   1.0000   1.0000   1.0000
     0.0000   0.0000   0.0000   0.0000

          k = 0.2500 0.0481 0.0000 (  3045 PWs)   bands (ev):

   -18.9154 -18.7556  -7.2386  -6.9663  -6.9141  -6.2340  -5.5814  -5.5601
     4.4818   4.8662   5.6110   6.7514

     occupation numbers 
     1.0000   1.0000   1.0000   1.0000   1.0000   1.0000   1.0000   1.0000
     0.0000   0.0000   0.0000   0.0000

          k =-0.1667-0.1925 0.0000 (  3045 PWs)   bands (ev):

   -18.9155 -18.7555  -7.2403  -6.9593  -6.9227  -6.2321  -5.5771  -5.5625
     4.4816   4.8666   5.6110   6.7513

     occupation numbers 
     1.0000   1.0000   1.0000   1.0000   1.0000   1.0000   1.0000   1.0000
     0.0000   0.0000   0.0000   0.0000

          k = 0.2500-0.0481 0.0000 (  3045 PWs)   bands (ev):

   -18.9154 -18.7556  -7.2386  -6.9663  -6.9141  -6.2340  -5.5814  -5.5601
     4.4818   4.8662   5.6110   6.7514

     occupation numbers 
     1.0000   1.0000   1.0000   1.0000   1.0000   1.0000   1.0000   1.0000
     0.0000   0.0000   0.0000   0.0000

          k =-0.0833 0.3368 0.0000 (  3033 PWs)   bands (ev):

   -17.9487 -17.7978  -9.0353  -8.9735  -6.4671  -6.4351  -6.1101  -5.1430
     5.2165   5.5647   5.8041   6.2180

     occupation numbers 
     1.0000   1.0000   1.0000   1.0000   1.0000   1.0000   1.0000   1.0000
     0.0000   0.0000   0.0000   0.0000

          k =-0.2500 0.2406 0.0000 (  3033 PWs)   bands (ev):

   -17.9484 -17.7982  -9.0351  -8.9722  -6.4643  -6.4398  -6.1035  -5.1514
     5.2067   5.5822   5.8003   6.2268

     occupation numbers 
     1.0000   1.0000   1.0000   1.0000   1.0000   1.0000   1.0000   1.0000
     0.0000   0.0000   0.0000   0.0000

          k = 0.3333 0.0962 0.0000 (  3033 PWs)   bands (ev):

   -17.9482 -17.7983  -9.0383  -8.9683  -6.4658  -6.4390  -6.1012  -5.1541
     5.1397   5.6609   5.8049   6.2183

     occupation numbers 
     1.0000   1.0000   1.0000   1.0000   1.0000   1.0000   1.0000   1.0000
     0.0000   0.0000   0.0000   0.0000

          k =-0.2500-0.2406 0.0000 (  3033 PWs)   bands (ev):

   -17.9484 -17.7982  -9.0351  -8.9722  -6.4643  -6.4398  -6.1035  -5.1514
     5.2067   5.5822   5.8003   6.2268

     occupation numbers 
     1.0000   1.0000   1.0000   1.0000   1.0000   1.0000   1.0000   1.0000
     0.0000   0.0000   0.0000   0.0000

          k = 0.3333-0.0962 0.0000 (  3033 PWs)   bands (ev):

   -17.9482 -17.7983  -9.0383  -8.9683  -6.4658  -6.4390  -6.1012  -5.1541
     5.1397   5.6609   5.8049   6.2183

     occupation numbers 
     1.0000   1.0000   1.0000   1.0000   1.0000   1.0000   1.0000   1.0000
     0.0000   0.0000   0.0000   0.0000

          k =-0.0833 0.4330 0.0000 (  3041 PWs)   bands (ev):

   -16.6861 -16.5468 -11.1597 -11.0768  -7.1009  -7.0652  -4.7059  -3.8055
     2.9203   3.4853   7.5077   7.6546

     occupation numbers 
     1.0000   1.0000   1.0000   1.0000   1.0000   1.0000   1.0000   1.0000
     0.0000   0.0000   0.0000   0.0000

          k =-0.3333 0.2887 0.0000 (  3041 PWs)   bands (ev):

   -16.6848 -16.5480 -11.1595 -11.0756  -7.0982  -7.0697  -4.6790  -3.8419
     2.9690   3.4542   7.4817   7.7675

     occupation numbers 
     1.0000   1.0000   1.0000   1.0000   1.0000   1.0000   1.0000   1.0000
     0.0000   0.0000   0.0000   0.0000

          k = 0.4167 0.1443 0.0000 (  3041 PWs)   bands (ev):

   -16.6846 -16.5483 -11.1612 -11.0736  -7.0988  -7.0694  -4.6761  -3.8447
     2.9161   3.5138   7.4923   7.7137

     occupation numbers 
     1.0000   1.0000   1.0000   1.0000   1.0000   1.0000   1.0000   1.0000
     0.0000   0.0000   0.0000   0.0000

          k =-0.3333-0.2887 0.0000 (  3041 PWs)   bands (ev):

   -16.6848 -16.5480 -11.1595 -11.0756  -7.0982  -7.0697  -4.6790  -3.8419
     2.9690   3.4542   7.4817   7.7675

     occupation numbers 
     1.0000   1.0000   1.0000   1.0000   1.0000   1.0000   1.0000   1.0000
     0.0000   0.0000   0.0000   0.0000

          k = 0.4167-0.1443 0.0000 (  3041 PWs)   bands (ev):

   -16.6846 -16.5483 -11.1612 -11.0736  -7.0988  -7.0694  -4.6761  -3.8447
     2.9161   3.5138   7.4923   7.7137

     occupation numbers 
     1.0000   1.0000   1.0000   1.0000   1.0000   1.0000   1.0000   1.0000
     0.0000   0.0000   0.0000   0.0000

          k =-0.0833 0.5292 0.0000 (  3043 PWs)   bands (ev):

   -15.2056 -15.0775 -13.1015 -13.0030  -7.4286  -7.3915  -3.3611  -2.5495
     1.0806   1.8115   7.5069   7.7010

     occupation numbers 
     1.0000   1.0000   1.0000   1.0000   1.0000   1.0000   1.0000   1.0000
     0.0000   0.0000   0.0000   0.0000

          k =-0.4167 0.3368 0.0000 (  3043 PWs)   bands (ev):

   -15.1973 -15.0868 -13.0966 -13.0056  -7.4260  -7.3958  -3.2261  -2.7379
     1.2885   1.6667   7.5594   7.6466

     occupation numbers 
     1.0000   1.0000   1.0000   1.0000   1.0000   1.0000   1.0000   1.0000
     0.0000   0.0000   0.0000   0.0000

          k = 0.5000 0.1925 0.0000 (  3043 PWs)   bands (ev):

   -15.1971 -15.0870 -13.0980 -13.0041  -7.4262  -7.3957  -3.2246  -2.7382
     1.2478   1.7084   7.5589   7.6443

     occupation numbers 
     1.0000   1.0000   1.0000   1.0000   1.0000   1.0000   1.0000   1.0000
     0.0000   0.0000   0.0000   0.0000

          k =-0.4167-0.3368 0.0000 (  3043 PWs)   bands (ev):

   -15.1973 -15.0868 -13.0966 -13.0056  -7.4260  -7.3958  -3.2261  -2.7379
     1.2885   1.6667   7.5594   7.6466

     occupation numbers 
     1.0000   1.0000   1.0000   1.0000   1.0000   1.0000   1.0000   1.0000
     0.0000   0.0000   0.0000   0.0000

          k = 0.5000-0.1925 0.0000 (  3043 PWs)   bands (ev):

   -15.1971 -15.0870 -13.0980 -13.0041  -7.4262  -7.3957  -3.2246  -2.7382
     1.2478   1.7084   7.5589   7.6443

     occupation numbers 
     1.0000   1.0000   1.0000   1.0000   1.0000   1.0000   1.0000   1.0000
     0.0000   0.0000   0.0000   0.0000

          k =-0.1667 0.2887 0.0000 (  3039 PWs)   bands (ev):

   -18.1091 -17.9569  -8.2749  -8.2563  -6.9293  -6.9174  -6.2895  -5.3194
     5.5813   5.7625   5.9084   5.9783

     occupation numbers 
     1.0000   1.0000   1.0000   1.0000   1.0000   1.0000   1.0000   1.0000
     0.0000   0.0000   0.0000   0.0000

          k = 0.3333-0.0000 0.0000 (  3039 PWs)   bands (ev):

   -18.1087 -17.9573  -8.2956  -8.2321  -6.9447  -6.9058  -6.2846  -5.3254
     5.5827   5.5973   5.9699   6.1010

     occupation numbers 
     1.0000   1.0000   1.0000   1.0000   1.0000   1.0000   1.0000   1.0000
     0.0000   0.0000   0.0000   0.0000

          k =-0.1667 0.3849 0.0000 (  3045 PWs)   bands (ev):

   -16.9990 -16.8575 -10.0127  -9.9575  -7.9937  -7.9550  -5.0157  -4.1030
     3.7669   4.0316   7.1101   7.4976

     occupation numbers 
     1.0000   1.0000   1.0000   1.0000   1.0000   1.0000   1.0000   1.0000
     0.0000   0.0000   0.0000   0.0000

          k =-0.2500 0.3368 0.0000 (  3045 PWs)   bands (ev):

   -16.9986 -16.8578 -10.0123  -9.9569  -7.9925  -7.9573  -5.0081  -4.1131
     3.7692   4.0370   7.1088   7.5047

     occupation numbers 
     1.0000   1.0000   1.0000   1.0000   1.0000   1.0000   1.0000   1.0000
     0.0000   0.0000   0.0000   0.0000

          k = 0.4167 0.0481 0.0000 (  3045 PWs)   bands (ev):

   -16.9981 -16.8583 -10.0229  -9.9446  -8.0002  -7.9514  -5.0009  -4.1214
     3.6167   4.2102   7.1104   7.4916

     occupation numbers 
     1.0000   1.0000   1.0000   1.0000   1.0000   1.0000   1.0000   1.0000
     0.0000   0.0000   0.0000   0.0000

          k =-0.2500-0.3368 0.0000 (  3045 PWs)   bands (ev):

   -16.9986 -16.8578 -10.0123  -9.9569  -7.9925  -7.9573  -5.0081  -4.1131
     3.7692   4.0370   7.1088   7.5047

     occupation numbers 
     1.0000   1.0000   1.0000   1.0000   1.0000   1.0000   1.0000   1.0000
     0.0000   0.0000   0.0000   0.0000

          k = 0.4167-0.0481 0.0000 (  3045 PWs)   bands (ev):

   -16.9981 -16.8583 -10.0229  -9.9446  -8.0002  -7.9514  -5.0009  -4.1214
     3.6167   4.2102   7.1104   7.4916

     occupation numbers 
     1.0000   1.0000   1.0000   1.0000   1.0000   1.0000   1.0000   1.0000
     0.0000   0.0000   0.0000   0.0000

          k =-0.1667 0.4811 0.0000 (  3041 PWs)   bands (ev):

   -15.6210 -15.4918 -11.9296 -11.8461  -8.5734  -8.5223  -3.5594  -2.7239
     1.7715   2.2246   9.0235   9.2648

     occupation numbers 
     1.0000   1.0000   1.0000   1.0000   1.0000   1.0000   1.0000   1.0000
     0.0000   0.0000   0.0000   0.0000

          k =-0.3333 0.3849 0.0000 (  3041 PWs)   bands (ev):

   -15.6188 -15.4942 -11.9286 -11.8457  -8.5729  -8.5242  -3.5108  -2.7924
     1.8326   2.1950   9.0059   9.4037

     occupation numbers 
     1.0000   1.0000   1.0000   1.0000   1.0000   1.0000   1.0000   1.0000
     0.0000   0.0000   0.0000   0.0000

          k = 0.5000 0.0962 0.0000 (  3041 PWs)   bands (ev):

   -15.6181 -15.4949 -11.9334 -11.8403  -8.5752  -8.5226  -3.5030  -2.7988
     1.7103   2.3268   9.0199   9.2592

     occupation numbers 
     1.0000   1.0000   1.0000   1.0000   1.0000   1.0000   1.0000   1.0000
     0.0000   0.0000   0.0000   0.0000

          k =-0.3333-0.3849 0.0000 (  3041 PWs)   bands (ev):

   -15.6188 -15.4942 -11.9286 -11.8457  -8.5729  -8.5242  -3.5108  -2.7924
     1.8326   2.1950   9.0059   9.4037

     occupation numbers 
     1.0000   1.0000   1.0000   1.0000   1.0000   1.0000   1.0000   1.0000
     0.0000   0.0000   0.0000   0.0000

          k = 0.5000-0.0962 0.0000 (  3041 PWs)   bands (ev):

   -15.6181 -15.4949 -11.9334 -11.8403  -8.5752  -8.5226  -3.5030  -2.7988
     1.7103   2.3268   9.0199   9.2592

     occupation numbers 
     1.0000   1.0000   1.0000   1.0000   1.0000   1.0000   1.0000   1.0000
     0.0000   0.0000   0.0000   0.0000

          k =-0.4167 0.4330 0.0000 (  3008 PWs)   bands (ev):

   -14.3479 -14.3116 -13.3282 -13.2977  -8.7590  -8.7063  -2.4072  -2.1846
     0.8484   1.1250   9.2925   9.4750

     occupation numbers 
     1.0000   1.0000   1.0000   1.0000   1.0000   1.0000   1.0000   1.0000
     0.0000   0.0000   0.0000   0.0000

          k = 0.5833 0.1443 0.0000 (  3008 PWs)   bands (ev):

   -14.3479 -14.3116 -13.3282 -13.2977  -8.7590  -8.7063  -2.4072  -2.1846
     0.8484   1.1250   9.2925   9.4750

     occupation numbers 
     1.0000   1.0000   1.0000   1.0000   1.0000   1.0000   1.0000   1.0000
     0.0000   0.0000   0.0000   0.0000

          k =-0.2500 0.4330 0.0000 (  3033 PWs)   bands (ev):

   -15.7680 -15.6393 -11.0298 -11.0040  -9.4590  -9.4403  -3.6355  -2.8192
     2.1968   2.3878   8.8205   9.1391

     occupation numbers 
     1.0000   1.0000   1.0000   1.0000   1.0000   1.0000   1.0000   1.0000
     0.0000   0.0000   0.0000   0.0000

          k = 0.5000-0.0000 0.0000 (  3033 PWs)   bands (ev):

   -15.7666 -15.6408 -11.0592 -10.9709  -9.4829  -9.4202  -3.6131  -2.8451
     1.9786   2.6338   8.8234   9.0750

     occupation numbers 
     1.0000   1.0000   1.0000   1.0000   1.0000   1.0000   1.0000   1.0000
     0.0000   0.0000   0.0000   0.0000

          k =-0.2500 0.5292 0.0000 (  3013 PWs)   bands (ev):

   -14.3441 -14.2278 -12.4663 -12.3984 -10.1802 -10.1284  -2.2265  -1.4726
     0.6490   0.9051  10.1300  10.5361

     occupation numbers 
     1.0000   1.0000   1.0000   1.0000   1.0000   1.0000   1.0000   1.0000
     0.0000   0.0000   0.0000   0.0000

          k =-0.3333 0.4811 0.0000 (  3013 PWs)   bands (ev):

   -14.3384 -14.2345 -12.4630 -12.3997 -10.1819 -10.1280  -2.1399  -1.6042
     0.6973   0.9123  10.0775  10.5818

     occupation numbers 
     1.0000   1.0000   1.0000   1.0000   1.0000   1.0000   1.0000   1.0000
     0.0000   0.0000   0.0000   0.0000

          k = 0.5833 0.0481 0.0000 (  3013 PWs)   bands (ev):

   -14.3365 -14.2363 -12.4783 -12.3832 -10.1884 -10.1227  -2.1208  -1.6120
     0.4903   1.1182   9.9506  10.7031

     occupation numbers 
     1.0000   1.0000   1.0000   1.0000   1.0000   1.0000   1.0000   1.0000
     0.0000   0.0000   0.0000   0.0000

          k =-0.3333-0.4811 0.0000 (  3013 PWs)   bands (ev):

   -14.3384 -14.2345 -12.4630 -12.3997 -10.1819 -10.1280  -2.1399  -1.6042
     0.6974   0.9123  10.0775  10.5818

     occupation numbers 
     1.0000   1.0000   1.0000   1.0000   1.0000   1.0000   1.0000   1.0000
     0.0000   0.0000   0.0000   0.0000

          k = 0.5833-0.0481 0.0000 (  3013 PWs)   bands (ev):

   -14.3365 -14.2363 -12.4783 -12.3832 -10.1884 -10.1227  -2.1208  -1.6120
     0.4903   1.1182   9.9506  10.7031

     occupation numbers 
     1.0000   1.0000   1.0000   1.0000   1.0000   1.0000   1.0000   1.0000
     0.0000   0.0000   0.0000   0.0000

     the Fermi energy is    -0.5919 ev

     Writing output data file g.dos1.save

     init_run     :      1.79s CPU      1.81s WALL (       1 calls)
     electrons    :    113.40s CPU    114.07s WALL (       1 calls)

     Called by init_run:
     wfcinit      :      0.00s CPU      0.00s WALL (       1 calls)
     potinit      :      0.69s CPU      0.70s WALL (       1 calls)

     Called by electrons:
     c_bands      :    113.39s CPU    114.07s WALL (       1 calls)
     v_of_rho     :      0.60s CPU      0.62s WALL (       1 calls)
     v_h          :      0.01s CPU      0.01s WALL (       1 calls)
     v_xc         :      0.59s CPU      0.60s WALL (       1 calls)
     newd         :      0.32s CPU      0.32s WALL (       1 calls)

     Called by c_bands:
     init_us_2    :      0.16s CPU      0.17s WALL (     148 calls)
     cegterg      :    106.16s CPU    106.79s WALL (     331 calls)

     Called by sum_band:

     Called by *egterg:
     h_psi        :     58.95s CPU     59.42s WALL (    5793 calls)
     s_psi        :      8.73s CPU      8.77s WALL (    5793 calls)
     g_psi        :      0.60s CPU      0.60s WALL (    5314 calls)
     cdiaghg      :      3.79s CPU      3.81s WALL (    5462 calls)
     cegterg:over :     15.85s CPU     15.91s WALL (    5314 calls)
     cegterg:upda :     11.48s CPU     11.51s WALL (    5314 calls)
     cegterg:last :      9.46s CPU      9.48s WALL (     921 calls)

     Called by h_psi:
     h_psi:vloc   :     40.30s CPU     40.68s WALL (    5793 calls)
     h_psi:vnl    :     18.35s CPU     18.44s WALL (    5793 calls)
     add_vuspsi   :      8.78s CPU      8.81s WALL (    5793 calls)

     General routines
     calbec       :      9.54s CPU      9.61s WALL (    5793 calls)
     fft          :      0.22s CPU      0.22s WALL (      22 calls)
     ffts         :      0.00s CPU      0.00s WALL (       2 calls)
     fftw         :     29.48s CPU     29.76s WALL (   68600 calls)
     interpolate  :      0.03s CPU      0.03s WALL (       2 calls)

     Parallel routines
     fft_scatter  :      4.71s CPU      4.76s WALL (   68624 calls)

     PWSCF        :  1m55.91s CPU     1m56.72s WALL


   This run was terminated on:  14:45:12  21Apr2020            

=------------------------------------------------------------------------------=
   JOB DONE.
=------------------------------------------------------------------------------=
