
     Program PWSCF v.5.1 starts on  1May2020 at  8:42: 7 

     This program is part of the open-source Quantum ESPRESSO suite
     for quantum simulation of materials; please cite
         "P. Giannozzi et al., J. Phys.:Condens. Matter 21 395502 (2009);
          URL http://www.quantum-espresso.org", 
     in publications or presentations arising from this work. More details at
     http://www.quantum-espresso.org/quote

     Parallel version (MPI), running on     1 processors
     Waiting for input...
     Reading input from standard input

     Current dimensions of program PWSCF are:
     Max number of different atomic species (ntypx) = 10
     Max number of k-points (npk) =  40000
     Max angular momentum in pseudopotentials (lmaxx) =  3

     Atomic positions and unit cell read from directory:
     ../tmp/g.dos1.save/


     IMPORTANT: XC functional enforced from input :
     Exchange-correlation      = PBE ( 1  4  3  4 0)
     Any further DFT definition will be discarded
     Please, verify this is what you really want

               file C.pbe-rrkjus.UPF: wavefunction(s)  2S 2P renormalized

     Subspace diagonalization in iterative solution of the eigenvalue problem:
     a serial algorithm will be used


     G-vector sticks info
     --------------------
     sticks:   dense  smooth     PW     G-vecs:    dense   smooth      PW
     Sum         595     241     85                96043    24369    4527

     Generating pointlists ...
     new r_m :   0.2381 (alat units)  1.1104 (a.u.) for type    1


     bravais-lattice index     =           12
     lattice parameter (alat)  =       4.6627  a.u.
     unit-cell volume          =     711.6007 (a.u.)^3
     number of atoms/cell      =            4
     number of atomic types    =            1
     number of electrons       =        16.00
     number of Kohn-Sham states=           12
     kinetic-energy cutoff     =      40.0000  Ry
     charge density cutoff     =     400.0000  Ry
     Exchange-correlation      = PBE ( 1  4  3  4 0)

     celldm(1)=   4.662710  celldm(2)=   1.000000  celldm(3)=   8.105698
     celldm(4)=  -0.500000  celldm(5)=   0.000000  celldm(6)=   0.000000

     crystal axes: (cart. coord. in units of alat)
               a(1) = (   1.000000   0.000000   0.000000 )  
               a(2) = (  -0.500000   0.866025   0.000000 )  
               a(3) = (   0.000000   0.000000   8.105698 )  

     reciprocal axes: (cart. coord. in units 2 pi/alat)
               b(1) = (  1.000000  0.577350 -0.000000 )  
               b(2) = (  0.000000  1.154701  0.000000 )  
               b(3) = (  0.000000 -0.000000  0.123370 )  


     PseudoPot. # 1 for C  read from file:
     ../pseudo/C.pbe-rrkjus.UPF
     MD5 check sum: 00fb224312de0c5b6853bd333518df6f
     Pseudo is Ultrasoft, Zval =  4.0
     Generated by new atomic code, or converted to UPF format
     Using radial grid of  627 points,  4 beta functions with: 
                l(1) =   0
                l(2) =   0
                l(3) =   1
                l(4) =   1
     Q(r) pseudized with 0 coefficients 


     atomic species   valence    mass     pseudopotential
        C              4.00    12.01100     C ( 1.00)

     Starting magnetic structure 
     atomic species   magnetization
        C           -0.500

     No symmetry found
          (note:  3 additional sym.ops. were found but ignored
           their fractional translations are incommensurate with FFT grid)

                                    s                        frac. trans.

      isym =  1     identity                                     

 cryst.   s( 1) = (     1          0          0      )
                  (     0          1          0      )
                  (     0          0          1      )

 cart.    s( 1) = (  1.0000000  0.0000000  0.0000000 )
                  (  0.0000000  1.0000000  0.0000000 )
                  (  0.0000000  0.0000000  1.0000000 )


     point group C_1 (1)    
     there are  1 classes
     the character table:

       E    
A      1.00

     the symmetry operations in each class:
     E        1

   Cartesian axes

     site n.     atom                  positions (alat units)
         1           C   tau(   1) = (   0.0000000   0.0000000   2.0264246  )
         2           C   tau(   2) = (   0.0000000   0.5773284   2.0264246  )
         3           C   tau(   3) = (   0.9726838   0.0000000   3.4449218  )
         4           C   tau(   4) = (   0.9726838   0.5773284   3.4449218  )

   Crystallographic axes

     site n.     atom                  positions (cryst. coord.)
         1           C   tau(   1) = (  0.0000000  0.0000000  0.2500000  )
         2           C   tau(   2) = (  0.3333207  0.6666414  0.2500000  )
         3           C   tau(   3) = (  0.9726838  0.0000000  0.4250000  )
         4           C   tau(   4) = (  1.3060045  0.6666414  0.4250000  )

     number of k points=   626 (tetrahedron method)
                       cart. coord. in units 2pi/alat
        k(    1) = (   0.0000000   0.0000000   0.0000000), wk =   0.0016000
        k(    2) = (   0.0000000   0.0461880   0.0000000), wk =   0.0032000
        k(    3) = (   0.0000000   0.0923760   0.0000000), wk =   0.0032000
        k(    4) = (   0.0000000   0.1385641   0.0000000), wk =   0.0032000
        k(    5) = (   0.0000000   0.1847521   0.0000000), wk =   0.0032000
        k(    6) = (   0.0000000   0.2309401   0.0000000), wk =   0.0032000
        k(    7) = (   0.0000000   0.2771281   0.0000000), wk =   0.0032000
        k(    8) = (   0.0000000   0.3233162   0.0000000), wk =   0.0032000
        k(    9) = (   0.0000000   0.3695042   0.0000000), wk =   0.0032000
        k(   10) = (   0.0000000   0.4156922   0.0000000), wk =   0.0032000
        k(   11) = (   0.0000000   0.4618802   0.0000000), wk =   0.0032000
        k(   12) = (   0.0000000   0.5080682   0.0000000), wk =   0.0032000
        k(   13) = (   0.0000000   0.5542563   0.0000000), wk =   0.0032000
        k(   14) = (   0.0400000   0.0692820   0.0000000), wk =   0.0032000
        k(   15) = (   0.0400000   0.1154701   0.0000000), wk =   0.0032000
        k(   16) = (   0.0400000   0.1616581   0.0000000), wk =   0.0032000
        k(   17) = (   0.0400000   0.2078461   0.0000000), wk =   0.0032000
        k(   18) = (   0.0400000   0.2540341   0.0000000), wk =   0.0032000
        k(   19) = (   0.0400000   0.3002221   0.0000000), wk =   0.0032000
        k(   20) = (   0.0400000   0.3464102   0.0000000), wk =   0.0032000
        k(   21) = (   0.0400000   0.3925982   0.0000000), wk =   0.0032000
        k(   22) = (   0.0400000   0.4387862   0.0000000), wk =   0.0032000
        k(   23) = (   0.0400000   0.4849742   0.0000000), wk =   0.0032000
        k(   24) = (   0.0400000   0.5311622   0.0000000), wk =   0.0032000
        k(   25) = (   0.0400000   0.5773503   0.0000000), wk =   0.0032000
        k(   26) = (   0.0800000   0.1385641   0.0000000), wk =   0.0032000
        k(   27) = (   0.0800000   0.1847521   0.0000000), wk =   0.0032000
        k(   28) = (   0.0800000   0.2309401   0.0000000), wk =   0.0032000
        k(   29) = (   0.0800000   0.2771281   0.0000000), wk =   0.0032000
        k(   30) = (   0.0800000   0.3233162   0.0000000), wk =   0.0032000
        k(   31) = (   0.0800000   0.3695042   0.0000000), wk =   0.0032000
        k(   32) = (   0.0800000   0.4156922   0.0000000), wk =   0.0032000
        k(   33) = (   0.0800000   0.4618802   0.0000000), wk =   0.0032000
        k(   34) = (   0.0800000   0.5080682   0.0000000), wk =   0.0032000
        k(   35) = (   0.0800000   0.5542563   0.0000000), wk =   0.0032000
        k(   36) = (   0.1200000   0.2078461   0.0000000), wk =   0.0032000
        k(   37) = (   0.1200000   0.2540341   0.0000000), wk =   0.0032000
        k(   38) = (   0.1200000   0.3002221   0.0000000), wk =   0.0032000
        k(   39) = (   0.1200000   0.3464102   0.0000000), wk =   0.0032000
        k(   40) = (   0.1200000   0.3925982   0.0000000), wk =   0.0032000
        k(   41) = (   0.1200000   0.4387862   0.0000000), wk =   0.0032000
        k(   42) = (   0.1200000   0.4849742   0.0000000), wk =   0.0032000
        k(   43) = (   0.1200000   0.5311622   0.0000000), wk =   0.0032000
        k(   44) = (   0.1200000   0.5773503   0.0000000), wk =   0.0032000
        k(   45) = (   0.1600000   0.2771281   0.0000000), wk =   0.0032000
        k(   46) = (   0.1600000   0.3233162   0.0000000), wk =   0.0032000
        k(   47) = (   0.1600000   0.3695042   0.0000000), wk =   0.0032000
        k(   48) = (   0.1600000   0.4156922   0.0000000), wk =   0.0032000
        k(   49) = (   0.1600000   0.4618802   0.0000000), wk =   0.0032000
        k(   50) = (   0.1600000   0.5080682   0.0000000), wk =   0.0032000
        k(   51) = (   0.1600000   0.5542563   0.0000000), wk =   0.0032000
        k(   52) = (   0.2000000   0.3464102   0.0000000), wk =   0.0032000
        k(   53) = (   0.2000000   0.3925982   0.0000000), wk =   0.0032000
        k(   54) = (   0.2000000   0.4387862   0.0000000), wk =   0.0032000
        k(   55) = (   0.2000000   0.4849742   0.0000000), wk =   0.0032000
        k(   56) = (   0.2000000   0.5311622   0.0000000), wk =   0.0032000
        k(   57) = (   0.2000000   0.5773503   0.0000000), wk =   0.0032000
        k(   58) = (   0.2400000   0.4156922   0.0000000), wk =   0.0032000
        k(   59) = (   0.2400000   0.4618802   0.0000000), wk =   0.0032000
        k(   60) = (   0.2400000   0.5080682   0.0000000), wk =   0.0032000
        k(   61) = (   0.2400000   0.5542563   0.0000000), wk =   0.0032000
        k(   62) = (   0.2800000   0.4849742   0.0000000), wk =   0.0032000
        k(   63) = (   0.2800000   0.5311622   0.0000000), wk =   0.0032000
        k(   64) = (   0.2800000   0.5773503   0.0000000), wk =   0.0032000
        k(   65) = (   0.3200000   0.5542563   0.0000000), wk =   0.0032000
        k(   66) = (  -0.0400000   0.0230940   0.0000000), wk =   0.0032000
        k(   67) = (   0.0400000   0.0230940   0.0000000), wk =   0.0032000
        k(   68) = (  -0.0800000   0.0461880   0.0000000), wk =   0.0032000
        k(   69) = (   0.0800000   0.0461880   0.0000000), wk =   0.0032000
        k(   70) = (  -0.1200000   0.0692820   0.0000000), wk =   0.0032000
        k(   71) = (   0.1200000   0.0692820   0.0000000), wk =   0.0032000
        k(   72) = (  -0.1600000   0.0923760   0.0000000), wk =   0.0032000
        k(   73) = (   0.1600000   0.0923760   0.0000000), wk =   0.0032000
        k(   74) = (  -0.2000000   0.1154701   0.0000000), wk =   0.0032000
        k(   75) = (   0.2000000   0.1154701   0.0000000), wk =   0.0032000
        k(   76) = (  -0.2400000   0.1385641   0.0000000), wk =   0.0032000
        k(   77) = (   0.2400000   0.1385641   0.0000000), wk =   0.0032000
        k(   78) = (  -0.2800000   0.1616581   0.0000000), wk =   0.0032000
        k(   79) = (   0.2800000   0.1616581   0.0000000), wk =   0.0032000
        k(   80) = (  -0.3200000   0.1847521   0.0000000), wk =   0.0032000
        k(   81) = (   0.3200000   0.1847521   0.0000000), wk =   0.0032000
        k(   82) = (  -0.3600000   0.2078461   0.0000000), wk =   0.0032000
        k(   83) = (   0.3600000   0.2078461   0.0000000), wk =   0.0032000
        k(   84) = (  -0.4000000   0.2309401   0.0000000), wk =   0.0032000
        k(   85) = (   0.4000000   0.2309401   0.0000000), wk =   0.0032000
        k(   86) = (  -0.4400000   0.2540341   0.0000000), wk =   0.0032000
        k(   87) = (   0.4400000   0.2540341   0.0000000), wk =   0.0032000
        k(   88) = (  -0.4800000   0.2771281   0.0000000), wk =   0.0032000
        k(   89) = (   0.4800000   0.2771281   0.0000000), wk =   0.0032000
        k(   90) = (  -0.0400000   0.0692820   0.0000000), wk =   0.0032000
        k(   91) = (   0.0800000  -0.0000000   0.0000000), wk =   0.0032000
        k(   92) = (  -0.0400000   0.1154701   0.0000000), wk =   0.0032000
        k(   93) = (  -0.0800000   0.0923760   0.0000000), wk =   0.0032000
        k(   94) = (   0.1200000   0.0230940   0.0000000), wk =   0.0032000
        k(   95) = (  -0.0800000  -0.0923760   0.0000000), wk =   0.0032000
        k(   96) = (   0.1200000  -0.0230940   0.0000000), wk =   0.0032000
        k(   97) = (  -0.0400000   0.1616581   0.0000000), wk =   0.0032000
        k(   98) = (  -0.1200000   0.1154701   0.0000000), wk =   0.0032000
        k(   99) = (   0.1600000   0.0461880   0.0000000), wk =   0.0032000
        k(  100) = (  -0.1200000  -0.1154701   0.0000000), wk =   0.0032000
        k(  101) = (   0.1600000  -0.0461880   0.0000000), wk =   0.0032000
        k(  102) = (  -0.0400000   0.2078461   0.0000000), wk =   0.0032000
        k(  103) = (  -0.1600000   0.1385641   0.0000000), wk =   0.0032000
        k(  104) = (   0.2000000   0.0692820   0.0000000), wk =   0.0032000
        k(  105) = (  -0.1600000  -0.1385641   0.0000000), wk =   0.0032000
        k(  106) = (   0.2000000  -0.0692820   0.0000000), wk =   0.0032000
        k(  107) = (  -0.0400000   0.2540341   0.0000000), wk =   0.0032000
        k(  108) = (  -0.2000000   0.1616581   0.0000000), wk =   0.0032000
        k(  109) = (   0.2400000   0.0923760   0.0000000), wk =   0.0032000
        k(  110) = (  -0.2000000  -0.1616581   0.0000000), wk =   0.0032000
        k(  111) = (   0.2400000  -0.0923760   0.0000000), wk =   0.0032000
        k(  112) = (  -0.0400000   0.3002221   0.0000000), wk =   0.0032000
        k(  113) = (  -0.2400000   0.1847521   0.0000000), wk =   0.0032000
        k(  114) = (   0.2800000   0.1154701   0.0000000), wk =   0.0032000
        k(  115) = (  -0.2400000  -0.1847521   0.0000000), wk =   0.0032000
        k(  116) = (   0.2800000  -0.1154701   0.0000000), wk =   0.0032000
        k(  117) = (  -0.0400000   0.3464102   0.0000000), wk =   0.0032000
        k(  118) = (  -0.2800000   0.2078461   0.0000000), wk =   0.0032000
        k(  119) = (   0.3200000   0.1385641   0.0000000), wk =   0.0032000
        k(  120) = (  -0.2800000  -0.2078461   0.0000000), wk =   0.0032000
        k(  121) = (   0.3200000  -0.1385641   0.0000000), wk =   0.0032000
        k(  122) = (  -0.0400000   0.3925982   0.0000000), wk =   0.0032000
        k(  123) = (  -0.3200000   0.2309401   0.0000000), wk =   0.0032000
        k(  124) = (   0.3600000   0.1616581   0.0000000), wk =   0.0032000
        k(  125) = (  -0.3200000  -0.2309401   0.0000000), wk =   0.0032000
        k(  126) = (   0.3600000  -0.1616581   0.0000000), wk =   0.0032000
        k(  127) = (  -0.0400000   0.4387862   0.0000000), wk =   0.0032000
        k(  128) = (  -0.3600000   0.2540341   0.0000000), wk =   0.0032000
        k(  129) = (   0.4000000   0.1847521   0.0000000), wk =   0.0032000
        k(  130) = (  -0.3600000  -0.2540341   0.0000000), wk =   0.0032000
        k(  131) = (   0.4000000  -0.1847521   0.0000000), wk =   0.0032000
        k(  132) = (  -0.0400000   0.4849742   0.0000000), wk =   0.0032000
        k(  133) = (  -0.4000000   0.2771281   0.0000000), wk =   0.0032000
        k(  134) = (   0.4400000   0.2078461   0.0000000), wk =   0.0032000
        k(  135) = (  -0.4000000  -0.2771281   0.0000000), wk =   0.0032000
        k(  136) = (   0.4400000  -0.2078461   0.0000000), wk =   0.0032000
        k(  137) = (  -0.0400000   0.5311622   0.0000000), wk =   0.0032000
        k(  138) = (  -0.4400000   0.3002221   0.0000000), wk =   0.0032000
        k(  139) = (   0.4800000   0.2309401   0.0000000), wk =   0.0032000
        k(  140) = (  -0.4400000  -0.3002221   0.0000000), wk =   0.0032000
        k(  141) = (   0.4800000  -0.2309401   0.0000000), wk =   0.0032000
        k(  142) = (  -0.4800000   0.3233162   0.0000000), wk =   0.0032000
        k(  143) = (   0.5200000   0.2540341   0.0000000), wk =   0.0032000
        k(  144) = (  -0.0800000   0.1385641   0.0000000), wk =   0.0032000
        k(  145) = (   0.1600000  -0.0000000   0.0000000), wk =   0.0032000
        k(  146) = (  -0.0800000   0.1847521   0.0000000), wk =   0.0032000
        k(  147) = (  -0.1200000   0.1616581   0.0000000), wk =   0.0032000
        k(  148) = (   0.2000000   0.0230940   0.0000000), wk =   0.0032000
        k(  149) = (  -0.1200000  -0.1616581   0.0000000), wk =   0.0032000
        k(  150) = (   0.2000000  -0.0230940   0.0000000), wk =   0.0032000
        k(  151) = (  -0.0800000   0.2309401   0.0000000), wk =   0.0032000
        k(  152) = (  -0.1600000   0.1847521   0.0000000), wk =   0.0032000
        k(  153) = (   0.2400000   0.0461880   0.0000000), wk =   0.0032000
        k(  154) = (  -0.1600000  -0.1847521   0.0000000), wk =   0.0032000
        k(  155) = (   0.2400000  -0.0461880   0.0000000), wk =   0.0032000
        k(  156) = (  -0.0800000   0.2771281   0.0000000), wk =   0.0032000
        k(  157) = (  -0.2000000   0.2078461   0.0000000), wk =   0.0032000
        k(  158) = (   0.2800000   0.0692820   0.0000000), wk =   0.0032000
        k(  159) = (  -0.2000000  -0.2078461   0.0000000), wk =   0.0032000
        k(  160) = (   0.2800000  -0.0692820   0.0000000), wk =   0.0032000
        k(  161) = (  -0.0800000   0.3233162   0.0000000), wk =   0.0032000
        k(  162) = (  -0.2400000   0.2309401   0.0000000), wk =   0.0032000
        k(  163) = (   0.3200000   0.0923760   0.0000000), wk =   0.0032000
        k(  164) = (  -0.2400000  -0.2309401   0.0000000), wk =   0.0032000
        k(  165) = (   0.3200000  -0.0923760   0.0000000), wk =   0.0032000
        k(  166) = (  -0.0800000   0.3695042   0.0000000), wk =   0.0032000
        k(  167) = (  -0.2800000   0.2540341   0.0000000), wk =   0.0032000
        k(  168) = (   0.3600000   0.1154701   0.0000000), wk =   0.0032000
        k(  169) = (  -0.2800000  -0.2540341   0.0000000), wk =   0.0032000
        k(  170) = (   0.3600000  -0.1154701   0.0000000), wk =   0.0032000
        k(  171) = (  -0.0800000   0.4156922   0.0000000), wk =   0.0032000
        k(  172) = (  -0.3200000   0.2771281   0.0000000), wk =   0.0032000
        k(  173) = (   0.4000000   0.1385641   0.0000000), wk =   0.0032000
        k(  174) = (  -0.3200000  -0.2771281   0.0000000), wk =   0.0032000
        k(  175) = (   0.4000000  -0.1385641   0.0000000), wk =   0.0032000
        k(  176) = (  -0.0800000   0.4618802   0.0000000), wk =   0.0032000
        k(  177) = (  -0.3600000   0.3002221   0.0000000), wk =   0.0032000
        k(  178) = (   0.4400000   0.1616581   0.0000000), wk =   0.0032000
        k(  179) = (  -0.3600000  -0.3002221   0.0000000), wk =   0.0032000
        k(  180) = (   0.4400000  -0.1616581   0.0000000), wk =   0.0032000
        k(  181) = (  -0.0800000   0.5080682   0.0000000), wk =   0.0032000
        k(  182) = (  -0.4000000   0.3233162   0.0000000), wk =   0.0032000
        k(  183) = (   0.4800000   0.1847521   0.0000000), wk =   0.0032000
        k(  184) = (  -0.4000000  -0.3233162   0.0000000), wk =   0.0032000
        k(  185) = (   0.4800000  -0.1847521   0.0000000), wk =   0.0032000
        k(  186) = (  -0.0800000   0.5542563   0.0000000), wk =   0.0032000
        k(  187) = (  -0.4400000   0.3464102   0.0000000), wk =   0.0032000
        k(  188) = (   0.5200000   0.2078461   0.0000000), wk =   0.0032000
        k(  189) = (  -0.4400000  -0.3464102   0.0000000), wk =   0.0032000
        k(  190) = (   0.5200000  -0.2078461   0.0000000), wk =   0.0032000
        k(  191) = (  -0.1200000   0.2078461   0.0000000), wk =   0.0032000
        k(  192) = (   0.2400000  -0.0000000   0.0000000), wk =   0.0032000
        k(  193) = (  -0.1200000   0.2540341   0.0000000), wk =   0.0032000
        k(  194) = (  -0.1600000   0.2309401   0.0000000), wk =   0.0032000
        k(  195) = (   0.2800000   0.0230940   0.0000000), wk =   0.0032000
        k(  196) = (  -0.1600000  -0.2309401   0.0000000), wk =   0.0032000
        k(  197) = (   0.2800000  -0.0230940   0.0000000), wk =   0.0032000
        k(  198) = (  -0.1200000   0.3002221   0.0000000), wk =   0.0032000
        k(  199) = (  -0.2000000   0.2540341   0.0000000), wk =   0.0032000
        k(  200) = (   0.3200000   0.0461880   0.0000000), wk =   0.0032000
        k(  201) = (  -0.2000000  -0.2540341   0.0000000), wk =   0.0032000
        k(  202) = (   0.3200000  -0.0461880   0.0000000), wk =   0.0032000
        k(  203) = (  -0.1200000   0.3464102   0.0000000), wk =   0.0032000
        k(  204) = (  -0.2400000   0.2771281   0.0000000), wk =   0.0032000
        k(  205) = (   0.3600000   0.0692820   0.0000000), wk =   0.0032000
        k(  206) = (  -0.2400000  -0.2771281   0.0000000), wk =   0.0032000
        k(  207) = (   0.3600000  -0.0692820   0.0000000), wk =   0.0032000
        k(  208) = (  -0.1200000   0.3925982   0.0000000), wk =   0.0032000
        k(  209) = (  -0.2800000   0.3002221   0.0000000), wk =   0.0032000
        k(  210) = (   0.4000000   0.0923760   0.0000000), wk =   0.0032000
        k(  211) = (  -0.2800000  -0.3002221   0.0000000), wk =   0.0032000
        k(  212) = (   0.4000000  -0.0923760   0.0000000), wk =   0.0032000
        k(  213) = (  -0.1200000   0.4387862   0.0000000), wk =   0.0032000
        k(  214) = (  -0.3200000   0.3233162   0.0000000), wk =   0.0032000
        k(  215) = (   0.4400000   0.1154701   0.0000000), wk =   0.0032000
        k(  216) = (  -0.3200000  -0.3233162   0.0000000), wk =   0.0032000
        k(  217) = (   0.4400000  -0.1154701   0.0000000), wk =   0.0032000
        k(  218) = (  -0.1200000   0.4849742   0.0000000), wk =   0.0032000
        k(  219) = (  -0.3600000   0.3464102   0.0000000), wk =   0.0032000
        k(  220) = (   0.4800000   0.1385641   0.0000000), wk =   0.0032000
        k(  221) = (  -0.3600000  -0.3464102   0.0000000), wk =   0.0032000
        k(  222) = (   0.4800000  -0.1385641   0.0000000), wk =   0.0032000
        k(  223) = (  -0.1200000   0.5311622   0.0000000), wk =   0.0032000
        k(  224) = (  -0.4000000   0.3695042   0.0000000), wk =   0.0032000
        k(  225) = (   0.5200000   0.1616581   0.0000000), wk =   0.0032000
        k(  226) = (  -0.4000000  -0.3695042   0.0000000), wk =   0.0032000
        k(  227) = (   0.5200000  -0.1616581   0.0000000), wk =   0.0032000
        k(  228) = (  -0.4400000   0.3925982   0.0000000), wk =   0.0032000
        k(  229) = (   0.5600000   0.1847521   0.0000000), wk =   0.0032000
        k(  230) = (  -0.1600000   0.2771281   0.0000000), wk =   0.0032000
        k(  231) = (   0.3200000  -0.0000000   0.0000000), wk =   0.0032000
        k(  232) = (  -0.1600000   0.3233162   0.0000000), wk =   0.0032000
        k(  233) = (  -0.2000000   0.3002221   0.0000000), wk =   0.0032000
        k(  234) = (   0.3600000   0.0230940   0.0000000), wk =   0.0032000
        k(  235) = (  -0.2000000  -0.3002221   0.0000000), wk =   0.0032000
        k(  236) = (   0.3600000  -0.0230940   0.0000000), wk =   0.0032000
        k(  237) = (  -0.1600000   0.3695042   0.0000000), wk =   0.0032000
        k(  238) = (  -0.2400000   0.3233162   0.0000000), wk =   0.0032000
        k(  239) = (   0.4000000   0.0461880   0.0000000), wk =   0.0032000
        k(  240) = (  -0.2400000  -0.3233162   0.0000000), wk =   0.0032000
        k(  241) = (   0.4000000  -0.0461880   0.0000000), wk =   0.0032000
        k(  242) = (  -0.1600000   0.4156922   0.0000000), wk =   0.0032000
        k(  243) = (  -0.2800000   0.3464102   0.0000000), wk =   0.0032000
        k(  244) = (   0.4400000   0.0692820   0.0000000), wk =   0.0032000
        k(  245) = (  -0.2800000  -0.3464102   0.0000000), wk =   0.0032000
        k(  246) = (   0.4400000  -0.0692820   0.0000000), wk =   0.0032000
        k(  247) = (  -0.1600000   0.4618802   0.0000000), wk =   0.0032000
        k(  248) = (  -0.3200000   0.3695042   0.0000000), wk =   0.0032000
        k(  249) = (   0.4800000   0.0923760   0.0000000), wk =   0.0032000
        k(  250) = (  -0.3200000  -0.3695042   0.0000000), wk =   0.0032000
        k(  251) = (   0.4800000  -0.0923760   0.0000000), wk =   0.0032000
        k(  252) = (  -0.1600000   0.5080682   0.0000000), wk =   0.0032000
        k(  253) = (  -0.3600000   0.3925982   0.0000000), wk =   0.0032000
        k(  254) = (   0.5200000   0.1154701   0.0000000), wk =   0.0032000
        k(  255) = (  -0.3600000  -0.3925982   0.0000000), wk =   0.0032000
        k(  256) = (   0.5200000  -0.1154701   0.0000000), wk =   0.0032000
        k(  257) = (  -0.1600000   0.5542563   0.0000000), wk =   0.0032000
        k(  258) = (  -0.4000000   0.4156922   0.0000000), wk =   0.0032000
        k(  259) = (   0.5600000   0.1385641   0.0000000), wk =   0.0032000
        k(  260) = (  -0.4000000  -0.4156922   0.0000000), wk =   0.0032000
        k(  261) = (   0.5600000  -0.1385641   0.0000000), wk =   0.0032000
        k(  262) = (  -0.2000000   0.3464102   0.0000000), wk =   0.0032000
        k(  263) = (   0.4000000  -0.0000000   0.0000000), wk =   0.0032000
        k(  264) = (  -0.2000000   0.3925982   0.0000000), wk =   0.0032000
        k(  265) = (  -0.2400000   0.3695042   0.0000000), wk =   0.0032000
        k(  266) = (   0.4400000   0.0230940   0.0000000), wk =   0.0032000
        k(  267) = (  -0.2400000  -0.3695042   0.0000000), wk =   0.0032000
        k(  268) = (   0.4400000  -0.0230940   0.0000000), wk =   0.0032000
        k(  269) = (  -0.2000000   0.4387862   0.0000000), wk =   0.0032000
        k(  270) = (  -0.2800000   0.3925982   0.0000000), wk =   0.0032000
        k(  271) = (   0.4800000   0.0461880   0.0000000), wk =   0.0032000
        k(  272) = (  -0.2800000  -0.3925982   0.0000000), wk =   0.0032000
        k(  273) = (   0.4800000  -0.0461880   0.0000000), wk =   0.0032000
        k(  274) = (  -0.2000000   0.4849742   0.0000000), wk =   0.0032000
        k(  275) = (  -0.3200000   0.4156922   0.0000000), wk =   0.0032000
        k(  276) = (   0.5200000   0.0692820   0.0000000), wk =   0.0032000
        k(  277) = (  -0.3200000  -0.4156922   0.0000000), wk =   0.0032000
        k(  278) = (   0.5200000  -0.0692820   0.0000000), wk =   0.0032000
        k(  279) = (  -0.2000000   0.5311622   0.0000000), wk =   0.0032000
        k(  280) = (  -0.3600000   0.4387862   0.0000000), wk =   0.0032000
        k(  281) = (   0.5600000   0.0923760   0.0000000), wk =   0.0032000
        k(  282) = (  -0.3600000  -0.4387862   0.0000000), wk =   0.0032000
        k(  283) = (   0.5600000  -0.0923760   0.0000000), wk =   0.0032000
        k(  284) = (  -0.4000000   0.4618802   0.0000000), wk =   0.0032000
        k(  285) = (   0.6000000   0.1154701   0.0000000), wk =   0.0032000
        k(  286) = (  -0.2400000   0.4156922   0.0000000), wk =   0.0032000
        k(  287) = (   0.4800000  -0.0000000   0.0000000), wk =   0.0032000
        k(  288) = (  -0.2400000   0.4618802   0.0000000), wk =   0.0032000
        k(  289) = (  -0.2800000   0.4387862   0.0000000), wk =   0.0032000
        k(  290) = (   0.5200000   0.0230940   0.0000000), wk =   0.0032000
        k(  291) = (  -0.2800000  -0.4387862   0.0000000), wk =   0.0032000
        k(  292) = (   0.5200000  -0.0230940   0.0000000), wk =   0.0032000
        k(  293) = (  -0.2400000   0.5080682   0.0000000), wk =   0.0032000
        k(  294) = (  -0.3200000   0.4618802   0.0000000), wk =   0.0032000
        k(  295) = (   0.5600000   0.0461880   0.0000000), wk =   0.0032000
        k(  296) = (  -0.3200000  -0.4618802   0.0000000), wk =   0.0032000
        k(  297) = (   0.5600000  -0.0461880   0.0000000), wk =   0.0032000
        k(  298) = (  -0.2400000   0.5542563   0.0000000), wk =   0.0032000
        k(  299) = (  -0.3600000   0.4849742   0.0000000), wk =   0.0032000
        k(  300) = (   0.6000000   0.0692820   0.0000000), wk =   0.0032000
        k(  301) = (  -0.3600000  -0.4849742   0.0000000), wk =   0.0032000
        k(  302) = (   0.6000000  -0.0692820   0.0000000), wk =   0.0032000
        k(  303) = (  -0.2800000   0.4849742   0.0000000), wk =   0.0032000
        k(  304) = (   0.5600000  -0.0000000   0.0000000), wk =   0.0032000
        k(  305) = (  -0.2800000   0.5311622   0.0000000), wk =   0.0032000
        k(  306) = (  -0.3200000   0.5080682   0.0000000), wk =   0.0032000
        k(  307) = (   0.6000000   0.0230940   0.0000000), wk =   0.0032000
        k(  308) = (  -0.3200000  -0.5080682   0.0000000), wk =   0.0032000
        k(  309) = (   0.6000000  -0.0230940   0.0000000), wk =   0.0032000
        k(  310) = (  -0.3600000   0.5311622   0.0000000), wk =   0.0032000
        k(  311) = (   0.6400000   0.0461880   0.0000000), wk =   0.0032000
        k(  312) = (  -0.3200000   0.5542563   0.0000000), wk =   0.0032000
        k(  313) = (   0.6400000  -0.0000000   0.0000000), wk =   0.0032000
        k(  314) = (   0.0000000   0.0000000   0.0000000), wk =   0.0016000
        k(  315) = (   0.0000000   0.0461880   0.0000000), wk =   0.0032000
        k(  316) = (   0.0000000   0.0923760   0.0000000), wk =   0.0032000
        k(  317) = (   0.0000000   0.1385641   0.0000000), wk =   0.0032000
        k(  318) = (   0.0000000   0.1847521   0.0000000), wk =   0.0032000
        k(  319) = (   0.0000000   0.2309401   0.0000000), wk =   0.0032000
        k(  320) = (   0.0000000   0.2771281   0.0000000), wk =   0.0032000
        k(  321) = (   0.0000000   0.3233162   0.0000000), wk =   0.0032000
        k(  322) = (   0.0000000   0.3695042   0.0000000), wk =   0.0032000
        k(  323) = (   0.0000000   0.4156922   0.0000000), wk =   0.0032000
        k(  324) = (   0.0000000   0.4618802   0.0000000), wk =   0.0032000
        k(  325) = (   0.0000000   0.5080682   0.0000000), wk =   0.0032000
        k(  326) = (   0.0000000   0.5542563   0.0000000), wk =   0.0032000
        k(  327) = (   0.0400000   0.0692820   0.0000000), wk =   0.0032000
        k(  328) = (   0.0400000   0.1154701   0.0000000), wk =   0.0032000
        k(  329) = (   0.0400000   0.1616581   0.0000000), wk =   0.0032000
        k(  330) = (   0.0400000   0.2078461   0.0000000), wk =   0.0032000
        k(  331) = (   0.0400000   0.2540341   0.0000000), wk =   0.0032000
        k(  332) = (   0.0400000   0.3002221   0.0000000), wk =   0.0032000
        k(  333) = (   0.0400000   0.3464102   0.0000000), wk =   0.0032000
        k(  334) = (   0.0400000   0.3925982   0.0000000), wk =   0.0032000
        k(  335) = (   0.0400000   0.4387862   0.0000000), wk =   0.0032000
        k(  336) = (   0.0400000   0.4849742   0.0000000), wk =   0.0032000
        k(  337) = (   0.0400000   0.5311622   0.0000000), wk =   0.0032000
        k(  338) = (   0.0400000   0.5773503   0.0000000), wk =   0.0032000
        k(  339) = (   0.0800000   0.1385641   0.0000000), wk =   0.0032000
        k(  340) = (   0.0800000   0.1847521   0.0000000), wk =   0.0032000
        k(  341) = (   0.0800000   0.2309401   0.0000000), wk =   0.0032000
        k(  342) = (   0.0800000   0.2771281   0.0000000), wk =   0.0032000
        k(  343) = (   0.0800000   0.3233162   0.0000000), wk =   0.0032000
        k(  344) = (   0.0800000   0.3695042   0.0000000), wk =   0.0032000
        k(  345) = (   0.0800000   0.4156922   0.0000000), wk =   0.0032000
        k(  346) = (   0.0800000   0.4618802   0.0000000), wk =   0.0032000
        k(  347) = (   0.0800000   0.5080682   0.0000000), wk =   0.0032000
        k(  348) = (   0.0800000   0.5542563   0.0000000), wk =   0.0032000
        k(  349) = (   0.1200000   0.2078461   0.0000000), wk =   0.0032000
        k(  350) = (   0.1200000   0.2540341   0.0000000), wk =   0.0032000
        k(  351) = (   0.1200000   0.3002221   0.0000000), wk =   0.0032000
        k(  352) = (   0.1200000   0.3464102   0.0000000), wk =   0.0032000
        k(  353) = (   0.1200000   0.3925982   0.0000000), wk =   0.0032000
        k(  354) = (   0.1200000   0.4387862   0.0000000), wk =   0.0032000
        k(  355) = (   0.1200000   0.4849742   0.0000000), wk =   0.0032000
        k(  356) = (   0.1200000   0.5311622   0.0000000), wk =   0.0032000
        k(  357) = (   0.1200000   0.5773503   0.0000000), wk =   0.0032000
        k(  358) = (   0.1600000   0.2771281   0.0000000), wk =   0.0032000
        k(  359) = (   0.1600000   0.3233162   0.0000000), wk =   0.0032000
        k(  360) = (   0.1600000   0.3695042   0.0000000), wk =   0.0032000
        k(  361) = (   0.1600000   0.4156922   0.0000000), wk =   0.0032000
        k(  362) = (   0.1600000   0.4618802   0.0000000), wk =   0.0032000
        k(  363) = (   0.1600000   0.5080682   0.0000000), wk =   0.0032000
        k(  364) = (   0.1600000   0.5542563   0.0000000), wk =   0.0032000
        k(  365) = (   0.2000000   0.3464102   0.0000000), wk =   0.0032000
        k(  366) = (   0.2000000   0.3925982   0.0000000), wk =   0.0032000
        k(  367) = (   0.2000000   0.4387862   0.0000000), wk =   0.0032000
        k(  368) = (   0.2000000   0.4849742   0.0000000), wk =   0.0032000
        k(  369) = (   0.2000000   0.5311622   0.0000000), wk =   0.0032000
        k(  370) = (   0.2000000   0.5773503   0.0000000), wk =   0.0032000
        k(  371) = (   0.2400000   0.4156922   0.0000000), wk =   0.0032000
        k(  372) = (   0.2400000   0.4618802   0.0000000), wk =   0.0032000
        k(  373) = (   0.2400000   0.5080682   0.0000000), wk =   0.0032000
        k(  374) = (   0.2400000   0.5542563   0.0000000), wk =   0.0032000
        k(  375) = (   0.2800000   0.4849742   0.0000000), wk =   0.0032000
        k(  376) = (   0.2800000   0.5311622   0.0000000), wk =   0.0032000
        k(  377) = (   0.2800000   0.5773503   0.0000000), wk =   0.0032000
        k(  378) = (   0.3200000   0.5542563   0.0000000), wk =   0.0032000
        k(  379) = (  -0.0400000   0.0230940   0.0000000), wk =   0.0032000
        k(  380) = (   0.0400000   0.0230940   0.0000000), wk =   0.0032000
        k(  381) = (  -0.0800000   0.0461880   0.0000000), wk =   0.0032000
        k(  382) = (   0.0800000   0.0461880   0.0000000), wk =   0.0032000
        k(  383) = (  -0.1200000   0.0692820   0.0000000), wk =   0.0032000
        k(  384) = (   0.1200000   0.0692820   0.0000000), wk =   0.0032000
        k(  385) = (  -0.1600000   0.0923760   0.0000000), wk =   0.0032000
        k(  386) = (   0.1600000   0.0923760   0.0000000), wk =   0.0032000
        k(  387) = (  -0.2000000   0.1154701   0.0000000), wk =   0.0032000
        k(  388) = (   0.2000000   0.1154701   0.0000000), wk =   0.0032000
        k(  389) = (  -0.2400000   0.1385641   0.0000000), wk =   0.0032000
        k(  390) = (   0.2400000   0.1385641   0.0000000), wk =   0.0032000
        k(  391) = (  -0.2800000   0.1616581   0.0000000), wk =   0.0032000
        k(  392) = (   0.2800000   0.1616581   0.0000000), wk =   0.0032000
        k(  393) = (  -0.3200000   0.1847521   0.0000000), wk =   0.0032000
        k(  394) = (   0.3200000   0.1847521   0.0000000), wk =   0.0032000
        k(  395) = (  -0.3600000   0.2078461   0.0000000), wk =   0.0032000
        k(  396) = (   0.3600000   0.2078461   0.0000000), wk =   0.0032000
        k(  397) = (  -0.4000000   0.2309401   0.0000000), wk =   0.0032000
        k(  398) = (   0.4000000   0.2309401   0.0000000), wk =   0.0032000
        k(  399) = (  -0.4400000   0.2540341   0.0000000), wk =   0.0032000
        k(  400) = (   0.4400000   0.2540341   0.0000000), wk =   0.0032000
        k(  401) = (  -0.4800000   0.2771281   0.0000000), wk =   0.0032000
        k(  402) = (   0.4800000   0.2771281   0.0000000), wk =   0.0032000
        k(  403) = (  -0.0400000   0.0692820   0.0000000), wk =   0.0032000
        k(  404) = (   0.0800000  -0.0000000   0.0000000), wk =   0.0032000
        k(  405) = (  -0.0400000   0.1154701   0.0000000), wk =   0.0032000
        k(  406) = (  -0.0800000   0.0923760   0.0000000), wk =   0.0032000
        k(  407) = (   0.1200000   0.0230940   0.0000000), wk =   0.0032000
        k(  408) = (  -0.0800000  -0.0923760   0.0000000), wk =   0.0032000
        k(  409) = (   0.1200000  -0.0230940   0.0000000), wk =   0.0032000
        k(  410) = (  -0.0400000   0.1616581   0.0000000), wk =   0.0032000
        k(  411) = (  -0.1200000   0.1154701   0.0000000), wk =   0.0032000
        k(  412) = (   0.1600000   0.0461880   0.0000000), wk =   0.0032000
        k(  413) = (  -0.1200000  -0.1154701   0.0000000), wk =   0.0032000
        k(  414) = (   0.1600000  -0.0461880   0.0000000), wk =   0.0032000
        k(  415) = (  -0.0400000   0.2078461   0.0000000), wk =   0.0032000
        k(  416) = (  -0.1600000   0.1385641   0.0000000), wk =   0.0032000
        k(  417) = (   0.2000000   0.0692820   0.0000000), wk =   0.0032000
        k(  418) = (  -0.1600000  -0.1385641   0.0000000), wk =   0.0032000
        k(  419) = (   0.2000000  -0.0692820   0.0000000), wk =   0.0032000
        k(  420) = (  -0.0400000   0.2540341   0.0000000), wk =   0.0032000
        k(  421) = (  -0.2000000   0.1616581   0.0000000), wk =   0.0032000
        k(  422) = (   0.2400000   0.0923760   0.0000000), wk =   0.0032000
        k(  423) = (  -0.2000000  -0.1616581   0.0000000), wk =   0.0032000
        k(  424) = (   0.2400000  -0.0923760   0.0000000), wk =   0.0032000
        k(  425) = (  -0.0400000   0.3002221   0.0000000), wk =   0.0032000
        k(  426) = (  -0.2400000   0.1847521   0.0000000), wk =   0.0032000
        k(  427) = (   0.2800000   0.1154701   0.0000000), wk =   0.0032000
        k(  428) = (  -0.2400000  -0.1847521   0.0000000), wk =   0.0032000
        k(  429) = (   0.2800000  -0.1154701   0.0000000), wk =   0.0032000
        k(  430) = (  -0.0400000   0.3464102   0.0000000), wk =   0.0032000
        k(  431) = (  -0.2800000   0.2078461   0.0000000), wk =   0.0032000
        k(  432) = (   0.3200000   0.1385641   0.0000000), wk =   0.0032000
        k(  433) = (  -0.2800000  -0.2078461   0.0000000), wk =   0.0032000
        k(  434) = (   0.3200000  -0.1385641   0.0000000), wk =   0.0032000
        k(  435) = (  -0.0400000   0.3925982   0.0000000), wk =   0.0032000
        k(  436) = (  -0.3200000   0.2309401   0.0000000), wk =   0.0032000
        k(  437) = (   0.3600000   0.1616581   0.0000000), wk =   0.0032000
        k(  438) = (  -0.3200000  -0.2309401   0.0000000), wk =   0.0032000
        k(  439) = (   0.3600000  -0.1616581   0.0000000), wk =   0.0032000
        k(  440) = (  -0.0400000   0.4387862   0.0000000), wk =   0.0032000
        k(  441) = (  -0.3600000   0.2540341   0.0000000), wk =   0.0032000
        k(  442) = (   0.4000000   0.1847521   0.0000000), wk =   0.0032000
        k(  443) = (  -0.3600000  -0.2540341   0.0000000), wk =   0.0032000
        k(  444) = (   0.4000000  -0.1847521   0.0000000), wk =   0.0032000
        k(  445) = (  -0.0400000   0.4849742   0.0000000), wk =   0.0032000
        k(  446) = (  -0.4000000   0.2771281   0.0000000), wk =   0.0032000
        k(  447) = (   0.4400000   0.2078461   0.0000000), wk =   0.0032000
        k(  448) = (  -0.4000000  -0.2771281   0.0000000), wk =   0.0032000
        k(  449) = (   0.4400000  -0.2078461   0.0000000), wk =   0.0032000
        k(  450) = (  -0.0400000   0.5311622   0.0000000), wk =   0.0032000
        k(  451) = (  -0.4400000   0.3002221   0.0000000), wk =   0.0032000
        k(  452) = (   0.4800000   0.2309401   0.0000000), wk =   0.0032000
        k(  453) = (  -0.4400000  -0.3002221   0.0000000), wk =   0.0032000
        k(  454) = (   0.4800000  -0.2309401   0.0000000), wk =   0.0032000
        k(  455) = (  -0.4800000   0.3233162   0.0000000), wk =   0.0032000
        k(  456) = (   0.5200000   0.2540341   0.0000000), wk =   0.0032000
        k(  457) = (  -0.0800000   0.1385641   0.0000000), wk =   0.0032000
        k(  458) = (   0.1600000  -0.0000000   0.0000000), wk =   0.0032000
        k(  459) = (  -0.0800000   0.1847521   0.0000000), wk =   0.0032000
        k(  460) = (  -0.1200000   0.1616581   0.0000000), wk =   0.0032000
        k(  461) = (   0.2000000   0.0230940   0.0000000), wk =   0.0032000
        k(  462) = (  -0.1200000  -0.1616581   0.0000000), wk =   0.0032000
        k(  463) = (   0.2000000  -0.0230940   0.0000000), wk =   0.0032000
        k(  464) = (  -0.0800000   0.2309401   0.0000000), wk =   0.0032000
        k(  465) = (  -0.1600000   0.1847521   0.0000000), wk =   0.0032000
        k(  466) = (   0.2400000   0.0461880   0.0000000), wk =   0.0032000
        k(  467) = (  -0.1600000  -0.1847521   0.0000000), wk =   0.0032000
        k(  468) = (   0.2400000  -0.0461880   0.0000000), wk =   0.0032000
        k(  469) = (  -0.0800000   0.2771281   0.0000000), wk =   0.0032000
        k(  470) = (  -0.2000000   0.2078461   0.0000000), wk =   0.0032000
        k(  471) = (   0.2800000   0.0692820   0.0000000), wk =   0.0032000
        k(  472) = (  -0.2000000  -0.2078461   0.0000000), wk =   0.0032000
        k(  473) = (   0.2800000  -0.0692820   0.0000000), wk =   0.0032000
        k(  474) = (  -0.0800000   0.3233162   0.0000000), wk =   0.0032000
        k(  475) = (  -0.2400000   0.2309401   0.0000000), wk =   0.0032000
        k(  476) = (   0.3200000   0.0923760   0.0000000), wk =   0.0032000
        k(  477) = (  -0.2400000  -0.2309401   0.0000000), wk =   0.0032000
        k(  478) = (   0.3200000  -0.0923760   0.0000000), wk =   0.0032000
        k(  479) = (  -0.0800000   0.3695042   0.0000000), wk =   0.0032000
        k(  480) = (  -0.2800000   0.2540341   0.0000000), wk =   0.0032000
        k(  481) = (   0.3600000   0.1154701   0.0000000), wk =   0.0032000
        k(  482) = (  -0.2800000  -0.2540341   0.0000000), wk =   0.0032000
        k(  483) = (   0.3600000  -0.1154701   0.0000000), wk =   0.0032000
        k(  484) = (  -0.0800000   0.4156922   0.0000000), wk =   0.0032000
        k(  485) = (  -0.3200000   0.2771281   0.0000000), wk =   0.0032000
        k(  486) = (   0.4000000   0.1385641   0.0000000), wk =   0.0032000
        k(  487) = (  -0.3200000  -0.2771281   0.0000000), wk =   0.0032000
        k(  488) = (   0.4000000  -0.1385641   0.0000000), wk =   0.0032000
        k(  489) = (  -0.0800000   0.4618802   0.0000000), wk =   0.0032000
        k(  490) = (  -0.3600000   0.3002221   0.0000000), wk =   0.0032000
        k(  491) = (   0.4400000   0.1616581   0.0000000), wk =   0.0032000
        k(  492) = (  -0.3600000  -0.3002221   0.0000000), wk =   0.0032000
        k(  493) = (   0.4400000  -0.1616581   0.0000000), wk =   0.0032000
        k(  494) = (  -0.0800000   0.5080682   0.0000000), wk =   0.0032000
        k(  495) = (  -0.4000000   0.3233162   0.0000000), wk =   0.0032000
        k(  496) = (   0.4800000   0.1847521   0.0000000), wk =   0.0032000
        k(  497) = (  -0.4000000  -0.3233162   0.0000000), wk =   0.0032000
        k(  498) = (   0.4800000  -0.1847521   0.0000000), wk =   0.0032000
        k(  499) = (  -0.0800000   0.5542563   0.0000000), wk =   0.0032000
        k(  500) = (  -0.4400000   0.3464102   0.0000000), wk =   0.0032000
        k(  501) = (   0.5200000   0.2078461   0.0000000), wk =   0.0032000
        k(  502) = (  -0.4400000  -0.3464102   0.0000000), wk =   0.0032000
        k(  503) = (   0.5200000  -0.2078461   0.0000000), wk =   0.0032000
        k(  504) = (  -0.1200000   0.2078461   0.0000000), wk =   0.0032000
        k(  505) = (   0.2400000  -0.0000000   0.0000000), wk =   0.0032000
        k(  506) = (  -0.1200000   0.2540341   0.0000000), wk =   0.0032000
        k(  507) = (  -0.1600000   0.2309401   0.0000000), wk =   0.0032000
        k(  508) = (   0.2800000   0.0230940   0.0000000), wk =   0.0032000
        k(  509) = (  -0.1600000  -0.2309401   0.0000000), wk =   0.0032000
        k(  510) = (   0.2800000  -0.0230940   0.0000000), wk =   0.0032000
        k(  511) = (  -0.1200000   0.3002221   0.0000000), wk =   0.0032000
        k(  512) = (  -0.2000000   0.2540341   0.0000000), wk =   0.0032000
        k(  513) = (   0.3200000   0.0461880   0.0000000), wk =   0.0032000
        k(  514) = (  -0.2000000  -0.2540341   0.0000000), wk =   0.0032000
        k(  515) = (   0.3200000  -0.0461880   0.0000000), wk =   0.0032000
        k(  516) = (  -0.1200000   0.3464102   0.0000000), wk =   0.0032000
        k(  517) = (  -0.2400000   0.2771281   0.0000000), wk =   0.0032000
        k(  518) = (   0.3600000   0.0692820   0.0000000), wk =   0.0032000
        k(  519) = (  -0.2400000  -0.2771281   0.0000000), wk =   0.0032000
        k(  520) = (   0.3600000  -0.0692820   0.0000000), wk =   0.0032000
        k(  521) = (  -0.1200000   0.3925982   0.0000000), wk =   0.0032000
        k(  522) = (  -0.2800000   0.3002221   0.0000000), wk =   0.0032000
        k(  523) = (   0.4000000   0.0923760   0.0000000), wk =   0.0032000
        k(  524) = (  -0.2800000  -0.3002221   0.0000000), wk =   0.0032000
        k(  525) = (   0.4000000  -0.0923760   0.0000000), wk =   0.0032000
        k(  526) = (  -0.1200000   0.4387862   0.0000000), wk =   0.0032000
        k(  527) = (  -0.3200000   0.3233162   0.0000000), wk =   0.0032000
        k(  528) = (   0.4400000   0.1154701   0.0000000), wk =   0.0032000
        k(  529) = (  -0.3200000  -0.3233162   0.0000000), wk =   0.0032000
        k(  530) = (   0.4400000  -0.1154701   0.0000000), wk =   0.0032000
        k(  531) = (  -0.1200000   0.4849742   0.0000000), wk =   0.0032000
        k(  532) = (  -0.3600000   0.3464102   0.0000000), wk =   0.0032000
        k(  533) = (   0.4800000   0.1385641   0.0000000), wk =   0.0032000
        k(  534) = (  -0.3600000  -0.3464102   0.0000000), wk =   0.0032000
        k(  535) = (   0.4800000  -0.1385641   0.0000000), wk =   0.0032000
        k(  536) = (  -0.1200000   0.5311622   0.0000000), wk =   0.0032000
        k(  537) = (  -0.4000000   0.3695042   0.0000000), wk =   0.0032000
        k(  538) = (   0.5200000   0.1616581   0.0000000), wk =   0.0032000
        k(  539) = (  -0.4000000  -0.3695042   0.0000000), wk =   0.0032000
        k(  540) = (   0.5200000  -0.1616581   0.0000000), wk =   0.0032000
        k(  541) = (  -0.4400000   0.3925982   0.0000000), wk =   0.0032000
        k(  542) = (   0.5600000   0.1847521   0.0000000), wk =   0.0032000
        k(  543) = (  -0.1600000   0.2771281   0.0000000), wk =   0.0032000
        k(  544) = (   0.3200000  -0.0000000   0.0000000), wk =   0.0032000
        k(  545) = (  -0.1600000   0.3233162   0.0000000), wk =   0.0032000
        k(  546) = (  -0.2000000   0.3002221   0.0000000), wk =   0.0032000
        k(  547) = (   0.3600000   0.0230940   0.0000000), wk =   0.0032000
        k(  548) = (  -0.2000000  -0.3002221   0.0000000), wk =   0.0032000
        k(  549) = (   0.3600000  -0.0230940   0.0000000), wk =   0.0032000
        k(  550) = (  -0.1600000   0.3695042   0.0000000), wk =   0.0032000
        k(  551) = (  -0.2400000   0.3233162   0.0000000), wk =   0.0032000
        k(  552) = (   0.4000000   0.0461880   0.0000000), wk =   0.0032000
        k(  553) = (  -0.2400000  -0.3233162   0.0000000), wk =   0.0032000
        k(  554) = (   0.4000000  -0.0461880   0.0000000), wk =   0.0032000
        k(  555) = (  -0.1600000   0.4156922   0.0000000), wk =   0.0032000
        k(  556) = (  -0.2800000   0.3464102   0.0000000), wk =   0.0032000
        k(  557) = (   0.4400000   0.0692820   0.0000000), wk =   0.0032000
        k(  558) = (  -0.2800000  -0.3464102   0.0000000), wk =   0.0032000
        k(  559) = (   0.4400000  -0.0692820   0.0000000), wk =   0.0032000
        k(  560) = (  -0.1600000   0.4618802   0.0000000), wk =   0.0032000
        k(  561) = (  -0.3200000   0.3695042   0.0000000), wk =   0.0032000
        k(  562) = (   0.4800000   0.0923760   0.0000000), wk =   0.0032000
        k(  563) = (  -0.3200000  -0.3695042   0.0000000), wk =   0.0032000
        k(  564) = (   0.4800000  -0.0923760   0.0000000), wk =   0.0032000
        k(  565) = (  -0.1600000   0.5080682   0.0000000), wk =   0.0032000
        k(  566) = (  -0.3600000   0.3925982   0.0000000), wk =   0.0032000
        k(  567) = (   0.5200000   0.1154701   0.0000000), wk =   0.0032000
        k(  568) = (  -0.3600000  -0.3925982   0.0000000), wk =   0.0032000
        k(  569) = (   0.5200000  -0.1154701   0.0000000), wk =   0.0032000
        k(  570) = (  -0.1600000   0.5542563   0.0000000), wk =   0.0032000
        k(  571) = (  -0.4000000   0.4156922   0.0000000), wk =   0.0032000
        k(  572) = (   0.5600000   0.1385641   0.0000000), wk =   0.0032000
        k(  573) = (  -0.4000000  -0.4156922   0.0000000), wk =   0.0032000
        k(  574) = (   0.5600000  -0.1385641   0.0000000), wk =   0.0032000
        k(  575) = (  -0.2000000   0.3464102   0.0000000), wk =   0.0032000
        k(  576) = (   0.4000000  -0.0000000   0.0000000), wk =   0.0032000
        k(  577) = (  -0.2000000   0.3925982   0.0000000), wk =   0.0032000
        k(  578) = (  -0.2400000   0.3695042   0.0000000), wk =   0.0032000
        k(  579) = (   0.4400000   0.0230940   0.0000000), wk =   0.0032000
        k(  580) = (  -0.2400000  -0.3695042   0.0000000), wk =   0.0032000
        k(  581) = (   0.4400000  -0.0230940   0.0000000), wk =   0.0032000
        k(  582) = (  -0.2000000   0.4387862   0.0000000), wk =   0.0032000
        k(  583) = (  -0.2800000   0.3925982   0.0000000), wk =   0.0032000
        k(  584) = (   0.4800000   0.0461880   0.0000000), wk =   0.0032000
        k(  585) = (  -0.2800000  -0.3925982   0.0000000), wk =   0.0032000
        k(  586) = (   0.4800000  -0.0461880   0.0000000), wk =   0.0032000
        k(  587) = (  -0.2000000   0.4849742   0.0000000), wk =   0.0032000
        k(  588) = (  -0.3200000   0.4156922   0.0000000), wk =   0.0032000
        k(  589) = (   0.5200000   0.0692820   0.0000000), wk =   0.0032000
        k(  590) = (  -0.3200000  -0.4156922   0.0000000), wk =   0.0032000
        k(  591) = (   0.5200000  -0.0692820   0.0000000), wk =   0.0032000
        k(  592) = (  -0.2000000   0.5311622   0.0000000), wk =   0.0032000
        k(  593) = (  -0.3600000   0.4387862   0.0000000), wk =   0.0032000
        k(  594) = (   0.5600000   0.0923760   0.0000000), wk =   0.0032000
        k(  595) = (  -0.3600000  -0.4387862   0.0000000), wk =   0.0032000
        k(  596) = (   0.5600000  -0.0923760   0.0000000), wk =   0.0032000
        k(  597) = (  -0.4000000   0.4618802   0.0000000), wk =   0.0032000
        k(  598) = (   0.6000000   0.1154701   0.0000000), wk =   0.0032000
        k(  599) = (  -0.2400000   0.4156922   0.0000000), wk =   0.0032000
        k(  600) = (   0.4800000  -0.0000000   0.0000000), wk =   0.0032000
        k(  601) = (  -0.2400000   0.4618802   0.0000000), wk =   0.0032000
        k(  602) = (  -0.2800000   0.4387862   0.0000000), wk =   0.0032000
        k(  603) = (   0.5200000   0.0230940   0.0000000), wk =   0.0032000
        k(  604) = (  -0.2800000  -0.4387862   0.0000000), wk =   0.0032000
        k(  605) = (   0.5200000  -0.0230940   0.0000000), wk =   0.0032000
        k(  606) = (  -0.2400000   0.5080682   0.0000000), wk =   0.0032000
        k(  607) = (  -0.3200000   0.4618802   0.0000000), wk =   0.0032000
        k(  608) = (   0.5600000   0.0461880   0.0000000), wk =   0.0032000
        k(  609) = (  -0.3200000  -0.4618802   0.0000000), wk =   0.0032000
        k(  610) = (   0.5600000  -0.0461880   0.0000000), wk =   0.0032000
        k(  611) = (  -0.2400000   0.5542563   0.0000000), wk =   0.0032000
        k(  612) = (  -0.3600000   0.4849742   0.0000000), wk =   0.0032000
        k(  613) = (   0.6000000   0.0692820   0.0000000), wk =   0.0032000
        k(  614) = (  -0.3600000  -0.4849742   0.0000000), wk =   0.0032000
        k(  615) = (   0.6000000  -0.0692820   0.0000000), wk =   0.0032000
        k(  616) = (  -0.2800000   0.4849742   0.0000000), wk =   0.0032000
        k(  617) = (   0.5600000  -0.0000000   0.0000000), wk =   0.0032000
        k(  618) = (  -0.2800000   0.5311622   0.0000000), wk =   0.0032000
        k(  619) = (  -0.3200000   0.5080682   0.0000000), wk =   0.0032000
        k(  620) = (   0.6000000   0.0230940   0.0000000), wk =   0.0032000
        k(  621) = (  -0.3200000  -0.5080682   0.0000000), wk =   0.0032000
        k(  622) = (   0.6000000  -0.0230940   0.0000000), wk =   0.0032000
        k(  623) = (  -0.3600000   0.5311622   0.0000000), wk =   0.0032000
        k(  624) = (   0.6400000   0.0461880   0.0000000), wk =   0.0032000
        k(  625) = (  -0.3200000   0.5542563   0.0000000), wk =   0.0032000
        k(  626) = (   0.6400000  -0.0000000   0.0000000), wk =   0.0032000

                       cryst. coord.
        k(    1) = (   0.0000000   0.0000000   0.0000000), wk =   0.0016000
        k(    2) = (   0.0000000   0.0400000   0.0000000), wk =   0.0032000
        k(    3) = (   0.0000000   0.0800000   0.0000000), wk =   0.0032000
        k(    4) = (   0.0000000   0.1200000   0.0000000), wk =   0.0032000
        k(    5) = (   0.0000000   0.1600000   0.0000000), wk =   0.0032000
        k(    6) = (   0.0000000   0.2000000   0.0000000), wk =   0.0032000
        k(    7) = (   0.0000000   0.2400000   0.0000000), wk =   0.0032000
        k(    8) = (   0.0000000   0.2800000   0.0000000), wk =   0.0032000
        k(    9) = (   0.0000000   0.3200000   0.0000000), wk =   0.0032000
        k(   10) = (   0.0000000   0.3600000   0.0000000), wk =   0.0032000
        k(   11) = (   0.0000000   0.4000000   0.0000000), wk =   0.0032000
        k(   12) = (   0.0000000   0.4400000   0.0000000), wk =   0.0032000
        k(   13) = (   0.0000000   0.4800000   0.0000000), wk =   0.0032000
        k(   14) = (   0.0400000   0.0400000   0.0000000), wk =   0.0032000
        k(   15) = (   0.0400000   0.0800000   0.0000000), wk =   0.0032000
        k(   16) = (   0.0400000   0.1200000   0.0000000), wk =   0.0032000
        k(   17) = (   0.0400000   0.1600000   0.0000000), wk =   0.0032000
        k(   18) = (   0.0400000   0.2000000   0.0000000), wk =   0.0032000
        k(   19) = (   0.0400000   0.2400000   0.0000000), wk =   0.0032000
        k(   20) = (   0.0400000   0.2800000   0.0000000), wk =   0.0032000
        k(   21) = (   0.0400000   0.3200000   0.0000000), wk =   0.0032000
        k(   22) = (   0.0400000   0.3600000   0.0000000), wk =   0.0032000
        k(   23) = (   0.0400000   0.4000000   0.0000000), wk =   0.0032000
        k(   24) = (   0.0400000   0.4400000   0.0000000), wk =   0.0032000
        k(   25) = (   0.0400000   0.4800000   0.0000000), wk =   0.0032000
        k(   26) = (   0.0800000   0.0800000   0.0000000), wk =   0.0032000
        k(   27) = (   0.0800000   0.1200000   0.0000000), wk =   0.0032000
        k(   28) = (   0.0800000   0.1600000   0.0000000), wk =   0.0032000
        k(   29) = (   0.0800000   0.2000000   0.0000000), wk =   0.0032000
        k(   30) = (   0.0800000   0.2400000   0.0000000), wk =   0.0032000
        k(   31) = (   0.0800000   0.2800000   0.0000000), wk =   0.0032000
        k(   32) = (   0.0800000   0.3200000   0.0000000), wk =   0.0032000
        k(   33) = (   0.0800000   0.3600000   0.0000000), wk =   0.0032000
        k(   34) = (   0.0800000   0.4000000   0.0000000), wk =   0.0032000
        k(   35) = (   0.0800000   0.4400000   0.0000000), wk =   0.0032000
        k(   36) = (   0.1200000   0.1200000   0.0000000), wk =   0.0032000
        k(   37) = (   0.1200000   0.1600000   0.0000000), wk =   0.0032000
        k(   38) = (   0.1200000   0.2000000   0.0000000), wk =   0.0032000
        k(   39) = (   0.1200000   0.2400000   0.0000000), wk =   0.0032000
        k(   40) = (   0.1200000   0.2800000   0.0000000), wk =   0.0032000
        k(   41) = (   0.1200000   0.3200000   0.0000000), wk =   0.0032000
        k(   42) = (   0.1200000   0.3600000   0.0000000), wk =   0.0032000
        k(   43) = (   0.1200000   0.4000000   0.0000000), wk =   0.0032000
        k(   44) = (   0.1200000   0.4400000   0.0000000), wk =   0.0032000
        k(   45) = (   0.1600000   0.1600000   0.0000000), wk =   0.0032000
        k(   46) = (   0.1600000   0.2000000   0.0000000), wk =   0.0032000
        k(   47) = (   0.1600000   0.2400000   0.0000000), wk =   0.0032000
        k(   48) = (   0.1600000   0.2800000   0.0000000), wk =   0.0032000
        k(   49) = (   0.1600000   0.3200000   0.0000000), wk =   0.0032000
        k(   50) = (   0.1600000   0.3600000   0.0000000), wk =   0.0032000
        k(   51) = (   0.1600000   0.4000000   0.0000000), wk =   0.0032000
        k(   52) = (   0.2000000   0.2000000   0.0000000), wk =   0.0032000
        k(   53) = (   0.2000000   0.2400000   0.0000000), wk =   0.0032000
        k(   54) = (   0.2000000   0.2800000   0.0000000), wk =   0.0032000
        k(   55) = (   0.2000000   0.3200000   0.0000000), wk =   0.0032000
        k(   56) = (   0.2000000   0.3600000   0.0000000), wk =   0.0032000
        k(   57) = (   0.2000000   0.4000000   0.0000000), wk =   0.0032000
        k(   58) = (   0.2400000   0.2400000   0.0000000), wk =   0.0032000
        k(   59) = (   0.2400000   0.2800000   0.0000000), wk =   0.0032000
        k(   60) = (   0.2400000   0.3200000   0.0000000), wk =   0.0032000
        k(   61) = (   0.2400000   0.3600000   0.0000000), wk =   0.0032000
        k(   62) = (   0.2800000   0.2800000   0.0000000), wk =   0.0032000
        k(   63) = (   0.2800000   0.3200000   0.0000000), wk =   0.0032000
        k(   64) = (   0.2800000   0.3600000   0.0000000), wk =   0.0032000
        k(   65) = (   0.3200000   0.3200000   0.0000000), wk =   0.0032000
        k(   66) = (  -0.0400000   0.0400000   0.0000000), wk =   0.0032000
        k(   67) = (   0.0400000   0.0000000   0.0000000), wk =   0.0032000
        k(   68) = (  -0.0800000   0.0800000   0.0000000), wk =   0.0032000
        k(   69) = (   0.0800000   0.0000000   0.0000000), wk =   0.0032000
        k(   70) = (  -0.1200000   0.1200000   0.0000000), wk =   0.0032000
        k(   71) = (   0.1200000   0.0000000   0.0000000), wk =   0.0032000
        k(   72) = (  -0.1600000   0.1600000   0.0000000), wk =   0.0032000
        k(   73) = (   0.1600000   0.0000000   0.0000000), wk =   0.0032000
        k(   74) = (  -0.2000000   0.2000000   0.0000000), wk =   0.0032000
        k(   75) = (   0.2000000  -0.0000000   0.0000000), wk =   0.0032000
        k(   76) = (  -0.2400000   0.2400000   0.0000000), wk =   0.0032000
        k(   77) = (   0.2400000   0.0000000   0.0000000), wk =   0.0032000
        k(   78) = (  -0.2800000   0.2800000   0.0000000), wk =   0.0032000
        k(   79) = (   0.2800000   0.0000000   0.0000000), wk =   0.0032000
        k(   80) = (  -0.3200000   0.3200000   0.0000000), wk =   0.0032000
        k(   81) = (   0.3200000   0.0000000   0.0000000), wk =   0.0032000
        k(   82) = (  -0.3600000   0.3600000   0.0000000), wk =   0.0032000
        k(   83) = (   0.3600000  -0.0000000   0.0000000), wk =   0.0032000
        k(   84) = (  -0.4000000   0.4000000   0.0000000), wk =   0.0032000
        k(   85) = (   0.4000000  -0.0000000   0.0000000), wk =   0.0032000
        k(   86) = (  -0.4400000   0.4400000   0.0000000), wk =   0.0032000
        k(   87) = (   0.4400000   0.0000000   0.0000000), wk =   0.0032000
        k(   88) = (  -0.4800000   0.4800000   0.0000000), wk =   0.0032000
        k(   89) = (   0.4800000   0.0000000   0.0000000), wk =   0.0032000
        k(   90) = (  -0.0400000   0.0800000   0.0000000), wk =   0.0032000
        k(   91) = (   0.0800000  -0.0400000   0.0000000), wk =   0.0032000
        k(   92) = (  -0.0400000   0.1200000   0.0000000), wk =   0.0032000
        k(   93) = (  -0.0800000   0.1200000   0.0000000), wk =   0.0032000
        k(   94) = (   0.1200000  -0.0400000   0.0000000), wk =   0.0032000
        k(   95) = (  -0.0800000  -0.0400000   0.0000000), wk =   0.0032000
        k(   96) = (   0.1200000  -0.0800000   0.0000000), wk =   0.0032000
        k(   97) = (  -0.0400000   0.1600000   0.0000000), wk =   0.0032000
        k(   98) = (  -0.1200000   0.1600000   0.0000000), wk =   0.0032000
        k(   99) = (   0.1600000  -0.0400000   0.0000000), wk =   0.0032000
        k(  100) = (  -0.1200000  -0.0400000   0.0000000), wk =   0.0032000
        k(  101) = (   0.1600000  -0.1200000   0.0000000), wk =   0.0032000
        k(  102) = (  -0.0400000   0.2000000   0.0000000), wk =   0.0032000
        k(  103) = (  -0.1600000   0.2000000   0.0000000), wk =   0.0032000
        k(  104) = (   0.2000000  -0.0400000   0.0000000), wk =   0.0032000
        k(  105) = (  -0.1600000  -0.0400000   0.0000000), wk =   0.0032000
        k(  106) = (   0.2000000  -0.1600000   0.0000000), wk =   0.0032000
        k(  107) = (  -0.0400000   0.2400000   0.0000000), wk =   0.0032000
        k(  108) = (  -0.2000000   0.2400000   0.0000000), wk =   0.0032000
        k(  109) = (   0.2400000  -0.0400000   0.0000000), wk =   0.0032000
        k(  110) = (  -0.2000000  -0.0400000   0.0000000), wk =   0.0032000
        k(  111) = (   0.2400000  -0.2000000   0.0000000), wk =   0.0032000
        k(  112) = (  -0.0400000   0.2800000   0.0000000), wk =   0.0032000
        k(  113) = (  -0.2400000   0.2800000   0.0000000), wk =   0.0032000
        k(  114) = (   0.2800000  -0.0400000   0.0000000), wk =   0.0032000
        k(  115) = (  -0.2400000  -0.0400000   0.0000000), wk =   0.0032000
        k(  116) = (   0.2800000  -0.2400000   0.0000000), wk =   0.0032000
        k(  117) = (  -0.0400000   0.3200000   0.0000000), wk =   0.0032000
        k(  118) = (  -0.2800000   0.3200000   0.0000000), wk =   0.0032000
        k(  119) = (   0.3200000  -0.0400000   0.0000000), wk =   0.0032000
        k(  120) = (  -0.2800000  -0.0400000   0.0000000), wk =   0.0032000
        k(  121) = (   0.3200000  -0.2800000   0.0000000), wk =   0.0032000
        k(  122) = (  -0.0400000   0.3600000   0.0000000), wk =   0.0032000
        k(  123) = (  -0.3200000   0.3600000   0.0000000), wk =   0.0032000
        k(  124) = (   0.3600000  -0.0400000   0.0000000), wk =   0.0032000
        k(  125) = (  -0.3200000  -0.0400000   0.0000000), wk =   0.0032000
        k(  126) = (   0.3600000  -0.3200000   0.0000000), wk =   0.0032000
        k(  127) = (  -0.0400000   0.4000000   0.0000000), wk =   0.0032000
        k(  128) = (  -0.3600000   0.4000000   0.0000000), wk =   0.0032000
        k(  129) = (   0.4000000  -0.0400000   0.0000000), wk =   0.0032000
        k(  130) = (  -0.3600000  -0.0400000   0.0000000), wk =   0.0032000
        k(  131) = (   0.4000000  -0.3600000   0.0000000), wk =   0.0032000
        k(  132) = (  -0.0400000   0.4400000   0.0000000), wk =   0.0032000
        k(  133) = (  -0.4000000   0.4400000   0.0000000), wk =   0.0032000
        k(  134) = (   0.4400000  -0.0400000   0.0000000), wk =   0.0032000
        k(  135) = (  -0.4000000  -0.0400000   0.0000000), wk =   0.0032000
        k(  136) = (   0.4400000  -0.4000000   0.0000000), wk =   0.0032000
        k(  137) = (  -0.0400000   0.4800000   0.0000000), wk =   0.0032000
        k(  138) = (  -0.4400000   0.4800000   0.0000000), wk =   0.0032000
        k(  139) = (   0.4800000  -0.0400000   0.0000000), wk =   0.0032000
        k(  140) = (  -0.4400000  -0.0400000   0.0000000), wk =   0.0032000
        k(  141) = (   0.4800000  -0.4400000   0.0000000), wk =   0.0032000
        k(  142) = (  -0.4800000   0.5200000   0.0000000), wk =   0.0032000
        k(  143) = (   0.5200000  -0.0400000   0.0000000), wk =   0.0032000
        k(  144) = (  -0.0800000   0.1600000   0.0000000), wk =   0.0032000
        k(  145) = (   0.1600000  -0.0800000   0.0000000), wk =   0.0032000
        k(  146) = (  -0.0800000   0.2000000   0.0000000), wk =   0.0032000
        k(  147) = (  -0.1200000   0.2000000   0.0000000), wk =   0.0032000
        k(  148) = (   0.2000000  -0.0800000   0.0000000), wk =   0.0032000
        k(  149) = (  -0.1200000  -0.0800000   0.0000000), wk =   0.0032000
        k(  150) = (   0.2000000  -0.1200000   0.0000000), wk =   0.0032000
        k(  151) = (  -0.0800000   0.2400000   0.0000000), wk =   0.0032000
        k(  152) = (  -0.1600000   0.2400000   0.0000000), wk =   0.0032000
        k(  153) = (   0.2400000  -0.0800000   0.0000000), wk =   0.0032000
        k(  154) = (  -0.1600000  -0.0800000   0.0000000), wk =   0.0032000
        k(  155) = (   0.2400000  -0.1600000   0.0000000), wk =   0.0032000
        k(  156) = (  -0.0800000   0.2800000   0.0000000), wk =   0.0032000
        k(  157) = (  -0.2000000   0.2800000   0.0000000), wk =   0.0032000
        k(  158) = (   0.2800000  -0.0800000   0.0000000), wk =   0.0032000
        k(  159) = (  -0.2000000  -0.0800000   0.0000000), wk =   0.0032000
        k(  160) = (   0.2800000  -0.2000000   0.0000000), wk =   0.0032000
        k(  161) = (  -0.0800000   0.3200000   0.0000000), wk =   0.0032000
        k(  162) = (  -0.2400000   0.3200000   0.0000000), wk =   0.0032000
        k(  163) = (   0.3200000  -0.0800000   0.0000000), wk =   0.0032000
        k(  164) = (  -0.2400000  -0.0800000   0.0000000), wk =   0.0032000
        k(  165) = (   0.3200000  -0.2400000   0.0000000), wk =   0.0032000
        k(  166) = (  -0.0800000   0.3600000   0.0000000), wk =   0.0032000
        k(  167) = (  -0.2800000   0.3600000   0.0000000), wk =   0.0032000
        k(  168) = (   0.3600000  -0.0800000   0.0000000), wk =   0.0032000
        k(  169) = (  -0.2800000  -0.0800000   0.0000000), wk =   0.0032000
        k(  170) = (   0.3600000  -0.2800000   0.0000000), wk =   0.0032000
        k(  171) = (  -0.0800000   0.4000000   0.0000000), wk =   0.0032000
        k(  172) = (  -0.3200000   0.4000000   0.0000000), wk =   0.0032000
        k(  173) = (   0.4000000  -0.0800000   0.0000000), wk =   0.0032000
        k(  174) = (  -0.3200000  -0.0800000   0.0000000), wk =   0.0032000
        k(  175) = (   0.4000000  -0.3200000   0.0000000), wk =   0.0032000
        k(  176) = (  -0.0800000   0.4400000   0.0000000), wk =   0.0032000
        k(  177) = (  -0.3600000   0.4400000   0.0000000), wk =   0.0032000
        k(  178) = (   0.4400000  -0.0800000   0.0000000), wk =   0.0032000
        k(  179) = (  -0.3600000  -0.0800000   0.0000000), wk =   0.0032000
        k(  180) = (   0.4400000  -0.3600000   0.0000000), wk =   0.0032000
        k(  181) = (  -0.0800000   0.4800000   0.0000000), wk =   0.0032000
        k(  182) = (  -0.4000000   0.4800000   0.0000000), wk =   0.0032000
        k(  183) = (   0.4800000  -0.0800000   0.0000000), wk =   0.0032000
        k(  184) = (  -0.4000000  -0.0800000   0.0000000), wk =   0.0032000
        k(  185) = (   0.4800000  -0.4000000   0.0000000), wk =   0.0032000
        k(  186) = (  -0.0800000   0.5200000   0.0000000), wk =   0.0032000
        k(  187) = (  -0.4400000   0.5200000   0.0000000), wk =   0.0032000
        k(  188) = (   0.5200000  -0.0800000   0.0000000), wk =   0.0032000
        k(  189) = (  -0.4400000  -0.0800000   0.0000000), wk =   0.0032000
        k(  190) = (   0.5200000  -0.4400000   0.0000000), wk =   0.0032000
        k(  191) = (  -0.1200000   0.2400000   0.0000000), wk =   0.0032000
        k(  192) = (   0.2400000  -0.1200000   0.0000000), wk =   0.0032000
        k(  193) = (  -0.1200000   0.2800000   0.0000000), wk =   0.0032000
        k(  194) = (  -0.1600000   0.2800000   0.0000000), wk =   0.0032000
        k(  195) = (   0.2800000  -0.1200000   0.0000000), wk =   0.0032000
        k(  196) = (  -0.1600000  -0.1200000   0.0000000), wk =   0.0032000
        k(  197) = (   0.2800000  -0.1600000   0.0000000), wk =   0.0032000
        k(  198) = (  -0.1200000   0.3200000   0.0000000), wk =   0.0032000
        k(  199) = (  -0.2000000   0.3200000   0.0000000), wk =   0.0032000
        k(  200) = (   0.3200000  -0.1200000   0.0000000), wk =   0.0032000
        k(  201) = (  -0.2000000  -0.1200000   0.0000000), wk =   0.0032000
        k(  202) = (   0.3200000  -0.2000000   0.0000000), wk =   0.0032000
        k(  203) = (  -0.1200000   0.3600000   0.0000000), wk =   0.0032000
        k(  204) = (  -0.2400000   0.3600000   0.0000000), wk =   0.0032000
        k(  205) = (   0.3600000  -0.1200000   0.0000000), wk =   0.0032000
        k(  206) = (  -0.2400000  -0.1200000   0.0000000), wk =   0.0032000
        k(  207) = (   0.3600000  -0.2400000   0.0000000), wk =   0.0032000
        k(  208) = (  -0.1200000   0.4000000   0.0000000), wk =   0.0032000
        k(  209) = (  -0.2800000   0.4000000   0.0000000), wk =   0.0032000
        k(  210) = (   0.4000000  -0.1200000   0.0000000), wk =   0.0032000
        k(  211) = (  -0.2800000  -0.1200000   0.0000000), wk =   0.0032000
        k(  212) = (   0.4000000  -0.2800000   0.0000000), wk =   0.0032000
        k(  213) = (  -0.1200000   0.4400000   0.0000000), wk =   0.0032000
        k(  214) = (  -0.3200000   0.4400000   0.0000000), wk =   0.0032000
        k(  215) = (   0.4400000  -0.1200000   0.0000000), wk =   0.0032000
        k(  216) = (  -0.3200000  -0.1200000   0.0000000), wk =   0.0032000
        k(  217) = (   0.4400000  -0.3200000   0.0000000), wk =   0.0032000
        k(  218) = (  -0.1200000   0.4800000   0.0000000), wk =   0.0032000
        k(  219) = (  -0.3600000   0.4800000   0.0000000), wk =   0.0032000
        k(  220) = (   0.4800000  -0.1200000   0.0000000), wk =   0.0032000
        k(  221) = (  -0.3600000  -0.1200000   0.0000000), wk =   0.0032000
        k(  222) = (   0.4800000  -0.3600000   0.0000000), wk =   0.0032000
        k(  223) = (  -0.1200000   0.5200000   0.0000000), wk =   0.0032000
        k(  224) = (  -0.4000000   0.5200000   0.0000000), wk =   0.0032000
        k(  225) = (   0.5200000  -0.1200000   0.0000000), wk =   0.0032000
        k(  226) = (  -0.4000000  -0.1200000   0.0000000), wk =   0.0032000
        k(  227) = (   0.5200000  -0.4000000   0.0000000), wk =   0.0032000
        k(  228) = (  -0.4400000   0.5600000   0.0000000), wk =   0.0032000
        k(  229) = (   0.5600000  -0.1200000   0.0000000), wk =   0.0032000
        k(  230) = (  -0.1600000   0.3200000   0.0000000), wk =   0.0032000
        k(  231) = (   0.3200000  -0.1600000   0.0000000), wk =   0.0032000
        k(  232) = (  -0.1600000   0.3600000   0.0000000), wk =   0.0032000
        k(  233) = (  -0.2000000   0.3600000   0.0000000), wk =   0.0032000
        k(  234) = (   0.3600000  -0.1600000   0.0000000), wk =   0.0032000
        k(  235) = (  -0.2000000  -0.1600000   0.0000000), wk =   0.0032000
        k(  236) = (   0.3600000  -0.2000000   0.0000000), wk =   0.0032000
        k(  237) = (  -0.1600000   0.4000000   0.0000000), wk =   0.0032000
        k(  238) = (  -0.2400000   0.4000000   0.0000000), wk =   0.0032000
        k(  239) = (   0.4000000  -0.1600000   0.0000000), wk =   0.0032000
        k(  240) = (  -0.2400000  -0.1600000   0.0000000), wk =   0.0032000
        k(  241) = (   0.4000000  -0.2400000   0.0000000), wk =   0.0032000
        k(  242) = (  -0.1600000   0.4400000   0.0000000), wk =   0.0032000
        k(  243) = (  -0.2800000   0.4400000   0.0000000), wk =   0.0032000
        k(  244) = (   0.4400000  -0.1600000   0.0000000), wk =   0.0032000
        k(  245) = (  -0.2800000  -0.1600000   0.0000000), wk =   0.0032000
        k(  246) = (   0.4400000  -0.2800000   0.0000000), wk =   0.0032000
        k(  247) = (  -0.1600000   0.4800000   0.0000000), wk =   0.0032000
        k(  248) = (  -0.3200000   0.4800000   0.0000000), wk =   0.0032000
        k(  249) = (   0.4800000  -0.1600000   0.0000000), wk =   0.0032000
        k(  250) = (  -0.3200000  -0.1600000   0.0000000), wk =   0.0032000
        k(  251) = (   0.4800000  -0.3200000   0.0000000), wk =   0.0032000
        k(  252) = (  -0.1600000   0.5200000   0.0000000), wk =   0.0032000
        k(  253) = (  -0.3600000   0.5200000   0.0000000), wk =   0.0032000
        k(  254) = (   0.5200000  -0.1600000   0.0000000), wk =   0.0032000
        k(  255) = (  -0.3600000  -0.1600000   0.0000000), wk =   0.0032000
        k(  256) = (   0.5200000  -0.3600000   0.0000000), wk =   0.0032000
        k(  257) = (  -0.1600000   0.5600000   0.0000000), wk =   0.0032000
        k(  258) = (  -0.4000000   0.5600000   0.0000000), wk =   0.0032000
        k(  259) = (   0.5600000  -0.1600000   0.0000000), wk =   0.0032000
        k(  260) = (  -0.4000000  -0.1600000   0.0000000), wk =   0.0032000
        k(  261) = (   0.5600000  -0.4000000   0.0000000), wk =   0.0032000
        k(  262) = (  -0.2000000   0.4000000   0.0000000), wk =   0.0032000
        k(  263) = (   0.4000000  -0.2000000   0.0000000), wk =   0.0032000
        k(  264) = (  -0.2000000   0.4400000   0.0000000), wk =   0.0032000
        k(  265) = (  -0.2400000   0.4400000   0.0000000), wk =   0.0032000
        k(  266) = (   0.4400000  -0.2000000   0.0000000), wk =   0.0032000
        k(  267) = (  -0.2400000  -0.2000000   0.0000000), wk =   0.0032000
        k(  268) = (   0.4400000  -0.2400000   0.0000000), wk =   0.0032000
        k(  269) = (  -0.2000000   0.4800000   0.0000000), wk =   0.0032000
        k(  270) = (  -0.2800000   0.4800000   0.0000000), wk =   0.0032000
        k(  271) = (   0.4800000  -0.2000000   0.0000000), wk =   0.0032000
        k(  272) = (  -0.2800000  -0.2000000   0.0000000), wk =   0.0032000
        k(  273) = (   0.4800000  -0.2800000   0.0000000), wk =   0.0032000
        k(  274) = (  -0.2000000   0.5200000   0.0000000), wk =   0.0032000
        k(  275) = (  -0.3200000   0.5200000   0.0000000), wk =   0.0032000
        k(  276) = (   0.5200000  -0.2000000   0.0000000), wk =   0.0032000
        k(  277) = (  -0.3200000  -0.2000000   0.0000000), wk =   0.0032000
        k(  278) = (   0.5200000  -0.3200000   0.0000000), wk =   0.0032000
        k(  279) = (  -0.2000000   0.5600000   0.0000000), wk =   0.0032000
        k(  280) = (  -0.3600000   0.5600000   0.0000000), wk =   0.0032000
        k(  281) = (   0.5600000  -0.2000000   0.0000000), wk =   0.0032000
        k(  282) = (  -0.3600000  -0.2000000   0.0000000), wk =   0.0032000
        k(  283) = (   0.5600000  -0.3600000   0.0000000), wk =   0.0032000
        k(  284) = (  -0.4000000   0.6000000   0.0000000), wk =   0.0032000
        k(  285) = (   0.6000000  -0.2000000   0.0000000), wk =   0.0032000
        k(  286) = (  -0.2400000   0.4800000   0.0000000), wk =   0.0032000
        k(  287) = (   0.4800000  -0.2400000   0.0000000), wk =   0.0032000
        k(  288) = (  -0.2400000   0.5200000   0.0000000), wk =   0.0032000
        k(  289) = (  -0.2800000   0.5200000   0.0000000), wk =   0.0032000
        k(  290) = (   0.5200000  -0.2400000   0.0000000), wk =   0.0032000
        k(  291) = (  -0.2800000  -0.2400000   0.0000000), wk =   0.0032000
        k(  292) = (   0.5200000  -0.2800000   0.0000000), wk =   0.0032000
        k(  293) = (  -0.2400000   0.5600000   0.0000000), wk =   0.0032000
        k(  294) = (  -0.3200000   0.5600000   0.0000000), wk =   0.0032000
        k(  295) = (   0.5600000  -0.2400000   0.0000000), wk =   0.0032000
        k(  296) = (  -0.3200000  -0.2400000   0.0000000), wk =   0.0032000
        k(  297) = (   0.5600000  -0.3200000   0.0000000), wk =   0.0032000
        k(  298) = (  -0.2400000   0.6000000   0.0000000), wk =   0.0032000
        k(  299) = (  -0.3600000   0.6000000   0.0000000), wk =   0.0032000
        k(  300) = (   0.6000000  -0.2400000   0.0000000), wk =   0.0032000
        k(  301) = (  -0.3600000  -0.2400000   0.0000000), wk =   0.0032000
        k(  302) = (   0.6000000  -0.3600000   0.0000000), wk =   0.0032000
        k(  303) = (  -0.2800000   0.5600000   0.0000000), wk =   0.0032000
        k(  304) = (   0.5600000  -0.2800000   0.0000000), wk =   0.0032000
        k(  305) = (  -0.2800000   0.6000000   0.0000000), wk =   0.0032000
        k(  306) = (  -0.3200000   0.6000000   0.0000000), wk =   0.0032000
        k(  307) = (   0.6000000  -0.2800000   0.0000000), wk =   0.0032000
        k(  308) = (  -0.3200000  -0.2800000   0.0000000), wk =   0.0032000
        k(  309) = (   0.6000000  -0.3200000   0.0000000), wk =   0.0032000
        k(  310) = (  -0.3600000   0.6400000   0.0000000), wk =   0.0032000
        k(  311) = (   0.6400000  -0.2800000   0.0000000), wk =   0.0032000
        k(  312) = (  -0.3200000   0.6400000   0.0000000), wk =   0.0032000
        k(  313) = (   0.6400000  -0.3200000   0.0000000), wk =   0.0032000
        k(  314) = (   0.0000000   0.0000000   0.0000000), wk =   0.0016000
        k(  315) = (   0.0000000   0.0400000   0.0000000), wk =   0.0032000
        k(  316) = (   0.0000000   0.0800000   0.0000000), wk =   0.0032000
        k(  317) = (   0.0000000   0.1200000   0.0000000), wk =   0.0032000
        k(  318) = (   0.0000000   0.1600000   0.0000000), wk =   0.0032000
        k(  319) = (   0.0000000   0.2000000   0.0000000), wk =   0.0032000
        k(  320) = (   0.0000000   0.2400000   0.0000000), wk =   0.0032000
        k(  321) = (   0.0000000   0.2800000   0.0000000), wk =   0.0032000
        k(  322) = (   0.0000000   0.3200000   0.0000000), wk =   0.0032000
        k(  323) = (   0.0000000   0.3600000   0.0000000), wk =   0.0032000
        k(  324) = (   0.0000000   0.4000000   0.0000000), wk =   0.0032000
        k(  325) = (   0.0000000   0.4400000   0.0000000), wk =   0.0032000
        k(  326) = (   0.0000000   0.4800000   0.0000000), wk =   0.0032000
        k(  327) = (   0.0400000   0.0400000   0.0000000), wk =   0.0032000
        k(  328) = (   0.0400000   0.0800000   0.0000000), wk =   0.0032000
        k(  329) = (   0.0400000   0.1200000   0.0000000), wk =   0.0032000
        k(  330) = (   0.0400000   0.1600000   0.0000000), wk =   0.0032000
        k(  331) = (   0.0400000   0.2000000   0.0000000), wk =   0.0032000
        k(  332) = (   0.0400000   0.2400000   0.0000000), wk =   0.0032000
        k(  333) = (   0.0400000   0.2800000   0.0000000), wk =   0.0032000
        k(  334) = (   0.0400000   0.3200000   0.0000000), wk =   0.0032000
        k(  335) = (   0.0400000   0.3600000   0.0000000), wk =   0.0032000
        k(  336) = (   0.0400000   0.4000000   0.0000000), wk =   0.0032000
        k(  337) = (   0.0400000   0.4400000   0.0000000), wk =   0.0032000
        k(  338) = (   0.0400000   0.4800000   0.0000000), wk =   0.0032000
        k(  339) = (   0.0800000   0.0800000   0.0000000), wk =   0.0032000
        k(  340) = (   0.0800000   0.1200000   0.0000000), wk =   0.0032000
        k(  341) = (   0.0800000   0.1600000   0.0000000), wk =   0.0032000
        k(  342) = (   0.0800000   0.2000000   0.0000000), wk =   0.0032000
        k(  343) = (   0.0800000   0.2400000   0.0000000), wk =   0.0032000
        k(  344) = (   0.0800000   0.2800000   0.0000000), wk =   0.0032000
        k(  345) = (   0.0800000   0.3200000   0.0000000), wk =   0.0032000
        k(  346) = (   0.0800000   0.3600000   0.0000000), wk =   0.0032000
        k(  347) = (   0.0800000   0.4000000   0.0000000), wk =   0.0032000
        k(  348) = (   0.0800000   0.4400000   0.0000000), wk =   0.0032000
        k(  349) = (   0.1200000   0.1200000   0.0000000), wk =   0.0032000
        k(  350) = (   0.1200000   0.1600000   0.0000000), wk =   0.0032000
        k(  351) = (   0.1200000   0.2000000   0.0000000), wk =   0.0032000
        k(  352) = (   0.1200000   0.2400000   0.0000000), wk =   0.0032000
        k(  353) = (   0.1200000   0.2800000   0.0000000), wk =   0.0032000
        k(  354) = (   0.1200000   0.3200000   0.0000000), wk =   0.0032000
        k(  355) = (   0.1200000   0.3600000   0.0000000), wk =   0.0032000
        k(  356) = (   0.1200000   0.4000000   0.0000000), wk =   0.0032000
        k(  357) = (   0.1200000   0.4400000   0.0000000), wk =   0.0032000
        k(  358) = (   0.1600000   0.1600000   0.0000000), wk =   0.0032000
        k(  359) = (   0.1600000   0.2000000   0.0000000), wk =   0.0032000
        k(  360) = (   0.1600000   0.2400000   0.0000000), wk =   0.0032000
[...]
     0.0000   0.0000   0.0000   0.0000

          k = 0.5600 0.1386 0.0000 (  3014 PWs)   bands (ev):

   -14.5410 -14.4651 -13.2077 -13.1446  -8.6145  -8.5816  -2.6423  -2.0849
     0.7548   1.3644   9.1310   9.3417

     occupation numbers 
     1.0000   1.0000   1.0000   1.0000   1.0000   1.0000   1.0000   1.0000
     0.0000   0.0000   0.0000   0.0000

          k =-0.4000-0.4157 0.0000 (  3014 PWs)   bands (ev):

   -14.5410 -14.4651 -13.2077 -13.1447  -8.6145  -8.5816  -2.6423  -2.0849
     0.7548   1.3641   9.1311   9.3418

     occupation numbers 
     1.0000   1.0000   1.0000   1.0000   1.0000   1.0000   1.0000   1.0000
     0.0000   0.0000   0.0000   0.0000

          k = 0.5600-0.1386 0.0000 (  3014 PWs)   bands (ev):

   -14.5410 -14.4651 -13.2077 -13.1446  -8.6145  -8.5816  -2.6423  -2.0849
     0.7548   1.3644   9.1310   9.3417

     occupation numbers 
     1.0000   1.0000   1.0000   1.0000   1.0000   1.0000   1.0000   1.0000
     0.0000   0.0000   0.0000   0.0000

          k =-0.2000 0.3464 0.0000 (  3047 PWs)   bands (ev):

   -17.2353 -17.1449  -9.4494  -9.4063  -7.9767  -7.9445  -5.1981  -4.5059
     4.1821   4.5915   6.6888   7.1158

     occupation numbers 
     1.0000   1.0000   1.0000   1.0000   1.0000   1.0000   1.0000   1.0000
     0.0000   0.0000   0.0000   0.0000

          k = 0.4000-0.0000 0.0000 (  3047 PWs)   bands (ev):

   -17.2353 -17.1449  -9.4488  -9.4055  -7.9775  -7.9452  -5.1982  -4.5061
     4.1819   4.5927   6.6888   7.1158

     occupation numbers 
     1.0000   1.0000   1.0000   1.0000   1.0000   1.0000   1.0000   1.0000
     0.0000   0.0000   0.0000   0.0000

          k =-0.2000 0.3926 0.0000 (  3045 PWs)   bands (ev):

   -16.6592 -16.5723 -10.1852 -10.1378  -8.5199  -8.4851  -4.5488  -3.8804
     3.2889   3.7261   7.4850   7.9112

     occupation numbers 
     1.0000   1.0000   1.0000   1.0000   1.0000   1.0000   1.0000   1.0000
     0.0000   0.0000   0.0000   0.0000

          k =-0.2400 0.3695 0.0000 (  3045 PWs)   bands (ev):

   -16.6592 -16.5723 -10.1850 -10.1376  -8.5201  -8.4853  -4.5488  -3.8805
     3.2890   3.7262   7.4850   7.9113

     occupation numbers 
     1.0000   1.0000   1.0000   1.0000   1.0000   1.0000   1.0000   1.0000
     0.0000   0.0000   0.0000   0.0000

          k = 0.4400 0.0231 0.0000 (  3045 PWs)   bands (ev):

   -16.6591 -16.5723 -10.1846 -10.1370  -8.5207  -8.4858  -4.5489  -3.8807
     3.2887   3.7274   7.4850   7.9111

     occupation numbers 
     1.0000   1.0000   1.0000   1.0000   1.0000   1.0000   1.0000   1.0000
     0.0000   0.0000   0.0000   0.0000

          k =-0.2400-0.3695 0.0000 (  3045 PWs)   bands (ev):

   -16.6592 -16.5723 -10.1850 -10.1376  -8.5201  -8.4853  -4.5488  -3.8805
     3.2890   3.7262   7.4850   7.9113

     occupation numbers 
     1.0000   1.0000   1.0000   1.0000   1.0000   1.0000   1.0000   1.0000
     0.0000   0.0000   0.0000   0.0000

          k = 0.4400-0.0231 0.0000 (  3045 PWs)   bands (ev):

   -16.6591 -16.5723 -10.1846 -10.1370  -8.5207  -8.4858  -4.5489  -3.8807
     3.2887   3.7274   7.4850   7.9111

     occupation numbers 
     1.0000   1.0000   1.0000   1.0000   1.0000   1.0000   1.0000   1.0000
     0.0000   0.0000   0.0000   0.0000

          k =-0.2000 0.4388 0.0000 (  3037 PWs)   bands (ev):

   -16.0222 -15.9391 -11.0106 -10.9584  -8.9052  -8.8687  -3.8545  -3.2146
     2.3911   2.8627   8.3693   8.7898

     occupation numbers 
     1.0000   1.0000   1.0000   1.0000   1.0000   1.0000   1.0000   1.0000
     0.0000   0.0000   0.0000   0.0000

          k =-0.2800 0.3926 0.0000 (  3037 PWs)   bands (ev):

   -16.0222 -15.9392 -11.0103 -10.9581  -8.9056  -8.8691  -3.8545  -3.2148
     2.3913   2.8629   8.3693   8.7899

     occupation numbers 
     1.0000   1.0000   1.0000   1.0000   1.0000   1.0000   1.0000   1.0000
     0.0000   0.0000   0.0000   0.0000

          k = 0.4800 0.0462 0.0000 (  3037 PWs)   bands (ev):

   -16.0222 -15.9391 -11.0100 -10.9578  -8.9059  -8.8694  -3.8546  -3.2150
     2.3910   2.8640   8.3693   8.7896

     occupation numbers 
     1.0000   1.0000   1.0000   1.0000   1.0000   1.0000   1.0000   1.0000
     0.0000   0.0000   0.0000   0.0000

          k =-0.2800-0.3926 0.0000 (  3037 PWs)   bands (ev):

   -16.0222 -15.9392 -11.0103 -10.9581  -8.9056  -8.8691  -3.8545  -3.2148
     2.3913   2.8629   8.3693   8.7899

     occupation numbers 
     1.0000   1.0000   1.0000   1.0000   1.0000   1.0000   1.0000   1.0000
     0.0000   0.0000   0.0000   0.0000

          k = 0.4800-0.0462 0.0000 (  3037 PWs)   bands (ev):

   -16.0222 -15.9391 -11.0100 -10.9578  -8.9059  -8.8694  -3.8546  -3.2150
     2.3910   2.8640   8.3693   8.7896

     occupation numbers 
     1.0000   1.0000   1.0000   1.0000   1.0000   1.0000   1.0000   1.0000
     0.0000   0.0000   0.0000   0.0000

          k =-0.2000 0.4850 0.0000 (  3023 PWs)   bands (ev):

   -15.3347 -15.2556 -11.8679 -11.8110  -9.1586  -9.1212  -3.1530  -2.5466
     1.5351   2.0468   9.3268   9.7312

     occupation numbers 
     1.0000   1.0000   1.0000   1.0000   1.0000   1.0000   1.0000   1.0000
     0.0000   0.0000   0.0000   0.0000

          k =-0.3200 0.4157 0.0000 (  3023 PWs)   bands (ev):

   -15.3347 -15.2556 -11.8676 -11.8106  -9.1590  -9.1216  -3.1530  -2.5472
     1.5355   2.0472   9.3268   9.7315

     occupation numbers 
     1.0000   1.0000   1.0000   1.0000   1.0000   1.0000   1.0000   1.0000
     0.0000   0.0000   0.0000   0.0000

          k = 0.5200 0.0693 0.0000 (  3023 PWs)   bands (ev):

   -15.3347 -15.2556 -11.8675 -11.8104  -9.1592  -9.1218  -3.1530  -2.5474
     1.5352   2.0481   9.3268   9.7303

     occupation numbers 
     1.0000   1.0000   1.0000   1.0000   1.0000   1.0000   1.0000   1.0000
     0.0000   0.0000   0.0000   0.0000

          k =-0.3200-0.4157 0.0000 (  3023 PWs)   bands (ev):

   -15.3347 -15.2556 -11.8676 -11.8106  -9.1590  -9.1216  -3.1530  -2.5472
     1.5355   2.0472   9.3268   9.7315

     occupation numbers 
     1.0000   1.0000   1.0000   1.0000   1.0000   1.0000   1.0000   1.0000
     0.0000   0.0000   0.0000   0.0000

          k = 0.5200-0.0693 0.0000 (  3023 PWs)   bands (ev):

   -15.3347 -15.2556 -11.8675 -11.8104  -9.1592  -9.1218  -3.1530  -2.5474
     1.5352   2.0481   9.3268   9.7303

     occupation numbers 
     1.0000   1.0000   1.0000   1.0000   1.0000   1.0000   1.0000   1.0000
     0.0000   0.0000   0.0000   0.0000

          k =-0.2000 0.5312 0.0000 (  3018 PWs)   bands (ev):

   -14.6305 -14.5549 -12.6865 -12.6254  -9.3034  -9.2654  -2.5408  -1.9713
     0.8260   1.3797  10.0680  10.3097

     occupation numbers 
     1.0000   1.0000   1.0000   1.0000   1.0000   1.0000   1.0000   1.0000
     0.0000   0.0000   0.0000   0.0000

          k =-0.3600 0.4388 0.0000 (  3018 PWs)   bands (ev):

   -14.6306 -14.5551 -12.6860 -12.6249  -9.3038  -9.2658  -2.5406  -1.9725
     0.8269   1.3802  10.0674  10.3115

     occupation numbers 
     1.0000   1.0000   1.0000   1.0000   1.0000   1.0000   1.0000   1.0000
     0.0000   0.0000   0.0000   0.0000

          k = 0.5600 0.0924 0.0000 (  3018 PWs)   bands (ev):

   -14.6306 -14.5551 -12.6859 -12.6248  -9.3039  -9.2659  -2.5407  -1.9726
     0.8267   1.3808  10.0667  10.3098

     occupation numbers 
     1.0000   1.0000   1.0000   1.0000   1.0000   1.0000   1.0000   1.0000
     0.0000   0.0000   0.0000   0.0000

          k =-0.3600-0.4388 0.0000 (  3018 PWs)   bands (ev):

   -14.6306 -14.5551 -12.6860 -12.6249  -9.3038  -9.2658  -2.5406  -1.9725
     0.8269   1.3802  10.0674  10.3115

     occupation numbers 
     1.0000   1.0000   1.0000   1.0000   1.0000   1.0000   1.0000   1.0000
     0.0000   0.0000   0.0000   0.0000

          k = 0.5600-0.0924 0.0000 (  3018 PWs)   bands (ev):

   -14.6306 -14.5551 -12.6859 -12.6248  -9.3039  -9.2659  -2.5407  -1.9726
     0.8267   1.3808  10.0667  10.3098

     occupation numbers 
     1.0000   1.0000   1.0000   1.0000   1.0000   1.0000   1.0000   1.0000
     0.0000   0.0000   0.0000   0.0000

          k =-0.4000 0.4619 0.0000 (  3012 PWs)   bands (ev):

   -14.1725 -14.0986 -13.1838 -13.1213  -9.3511  -9.3129  -2.2624  -1.7164
     0.5162   1.0926  10.0666  10.3622

     occupation numbers 
     1.0000   1.0000   1.0000   1.0000   1.0000   1.0000   1.0000   1.0000
     0.0000   0.0000   0.0000   0.0000

          k = 0.6000 0.1155 0.0000 (  3012 PWs)   bands (ev):

   -14.1725 -14.0986 -13.1838 -13.1213  -9.3511  -9.3129  -2.2624  -1.7164
     0.5162   1.0926  10.0666  10.3622

     occupation numbers 
     1.0000   1.0000   1.0000   1.0000   1.0000   1.0000   1.0000   1.0000
     0.0000   0.0000   0.0000   0.0000

          k =-0.2400 0.4157 0.0000 (  3037 PWs)   bands (ev):

   -16.0572 -15.9740 -10.7375 -10.6870  -9.1810  -9.1428  -3.8816  -3.2390
     2.4826   2.9358   8.3211   8.7328

     occupation numbers 
     1.0000   1.0000   1.0000   1.0000   1.0000   1.0000   1.0000   1.0000
     0.0000   0.0000   0.0000   0.0000

          k = 0.4800-0.0000 0.0000 (  3037 PWs)   bands (ev):

   -16.0572 -15.9740 -10.7370 -10.6863  -9.1818  -9.1434  -3.8817  -3.2394
     2.4823   2.9372   8.3211   8.7325

     occupation numbers 
     1.0000   1.0000   1.0000   1.0000   1.0000   1.0000   1.0000   1.0000
     0.0000   0.0000   0.0000   0.0000

          k =-0.2400 0.4619 0.0000 (  3025 PWs)   bands (ev):

   -15.4005 -15.3211 -11.4035 -11.3490  -9.6527  -9.6121  -3.1798  -2.5668
     1.6741   2.1503   9.2361   9.6098

     occupation numbers 
     1.0000   1.0000   1.0000   1.0000   1.0000   1.0000   1.0000   1.0000
     0.0000   0.0000   0.0000   0.0000

          k =-0.2800 0.4388 0.0000 (  3025 PWs)   bands (ev):

   -15.4005 -15.3211 -11.4033 -11.3488  -9.6529  -9.6123  -3.1798  -2.5670
     1.6742   2.1504   9.2361   9.6099

     occupation numbers 
     1.0000   1.0000   1.0000   1.0000   1.0000   1.0000   1.0000   1.0000
     0.0000   0.0000   0.0000   0.0000

          k = 0.5200 0.0231 0.0000 (  3025 PWs)   bands (ev):

   -15.4005 -15.3211 -11.4030 -11.3483  -9.6534  -9.6126  -3.1799  -2.5673
     1.6738   2.1518   9.2361   9.6085

     occupation numbers 
     1.0000   1.0000   1.0000   1.0000   1.0000   1.0000   1.0000   1.0000
     0.0000   0.0000   0.0000   0.0000

          k =-0.2800-0.4388 0.0000 (  3025 PWs)   bands (ev):

   -15.4005 -15.3211 -11.4033 -11.3488  -9.6529  -9.6123  -3.1798  -2.5670
     1.6742   2.1504   9.2361   9.6099

     occupation numbers 
     1.0000   1.0000   1.0000   1.0000   1.0000   1.0000   1.0000   1.0000
     0.0000   0.0000   0.0000   0.0000

          k = 0.5200-0.0231 0.0000 (  3025 PWs)   bands (ev):

   -15.4005 -15.3211 -11.4030 -11.3483  -9.6534  -9.6126  -3.1799  -2.5673
     1.6738   2.1518   9.2361   9.6085

     occupation numbers 
     1.0000   1.0000   1.0000   1.0000   1.0000   1.0000   1.0000   1.0000
     0.0000   0.0000   0.0000   0.0000

          k =-0.2400 0.5081 0.0000 (  3014 PWs)   bands (ev):

   -14.7062 -14.6307 -12.1490 -12.0902  -9.9318  -9.8898  -2.4926  -1.9129
     0.9135   1.4195   9.8758  10.2080

     occupation numbers 
     1.0000   1.0000   1.0000   1.0000   1.0000   1.0000   1.0000   1.0000
     0.0000   0.0000   0.0000   0.0000

          k =-0.3200 0.4619 0.0000 (  3014 PWs)   bands (ev):

   -14.7063 -14.6308 -12.1486 -12.0899  -9.9322  -9.8901  -2.4925  -1.9135
     0.9139   1.4199   9.8756  10.2081

     occupation numbers 
     1.0000   1.0000   1.0000   1.0000   1.0000   1.0000   1.0000   1.0000
     0.0000   0.0000   0.0000   0.0000

          k = 0.5600 0.0462 0.0000 (  3014 PWs)   bands (ev):

   -14.7063 -14.6308 -12.1485 -12.0896  -9.9324  -9.8903  -2.4926  -1.9138
     0.9135   1.4210   9.8747  10.2080

     occupation numbers 
     1.0000   1.0000   1.0000   1.0000   1.0000   1.0000   1.0000   1.0000
     0.0000   0.0000   0.0000   0.0000

          k =-0.3200-0.4619 0.0000 (  3014 PWs)   bands (ev):

   -14.7063 -14.6308 -12.1486 -12.0899  -9.9322  -9.8901  -2.4925  -1.9135
     0.9139   1.4199   9.8756  10.2081

     occupation numbers 
     1.0000   1.0000   1.0000   1.0000   1.0000   1.0000   1.0000   1.0000
     0.0000   0.0000   0.0000   0.0000

          k = 0.5600-0.0462 0.0000 (  3014 PWs)   bands (ev):

   -14.7063 -14.6308 -12.1485 -12.0896  -9.9324  -9.8903  -2.4926  -1.9138
     0.9135   1.4210   9.8747  10.2080

     occupation numbers 
     1.0000   1.0000   1.0000   1.0000   1.0000   1.0000   1.0000   1.0000
     0.0000   0.0000   0.0000   0.0000

          k =-0.2400 0.5543 0.0000 (  3009 PWs)   bands (ev):

   -14.0554 -13.9829 -12.8404 -12.7784 -10.0592 -10.0166  -1.9712  -1.4230
     0.3546   0.8908   9.7908  11.0522

     occupation numbers 
     1.0000   1.0000   1.0000   1.0000   1.0000   1.0000   1.0000   1.0000
     0.0000   0.0000   0.0000   0.0000

          k =-0.3600 0.4850 0.0000 (  3009 PWs)   bands (ev):

   -14.0556 -13.9832 -12.8398 -12.7778 -10.0596 -10.0170  -1.9710  -1.4245
     0.3555   0.8915   9.7905  11.0645

     occupation numbers 
     1.0000   1.0000   1.0000   1.0000   1.0000   1.0000   1.0000   1.0000
     0.0000   0.0000   0.0000   0.0000

          k = 0.6000 0.0693 0.0000 (  3009 PWs)   bands (ev):

   -14.0556 -13.9833 -12.8397 -12.7777 -10.0597 -10.0171  -1.9711  -1.4246
     0.3552   0.8921   9.7903  11.0526

     occupation numbers 
     1.0000   1.0000   1.0000   1.0000   1.0000   1.0000   1.0000   1.0000
     0.0000   0.0000   0.0000   0.0000

          k =-0.3600-0.4850 0.0000 (  3009 PWs)   bands (ev):

   -14.0556 -13.9832 -12.8398 -12.7778 -10.0596 -10.0170  -1.9710  -1.4245
     0.3555   0.8915   9.7905  11.0646

     occupation numbers 
     1.0000   1.0000   1.0000   1.0000   1.0000   1.0000   1.0000   1.0000
     0.0000   0.0000   0.0000   0.0000

          k = 0.6000-0.0693 0.0000 (  3009 PWs)   bands (ev):

   -14.0556 -13.9833 -12.8397 -12.7777 -10.0597 -10.0171  -1.9711  -1.4246
     0.3552   0.8921   9.7903  11.0526

     occupation numbers 
     1.0000   1.0000   1.0000   1.0000   1.0000   1.0000   1.0000   1.0000
     0.0000   0.0000   0.0000   0.0000

          k =-0.2800 0.4850 0.0000 (  3015 PWs)   bands (ev):

   -14.7338 -14.6583 -11.8672 -11.8097 -10.2434 -10.1999  -2.4791  -1.8955
     0.9517   1.4391   9.7416  10.1640

     occupation numbers 
     1.0000   1.0000   1.0000   1.0000   1.0000   1.0000   1.0000   1.0000
     0.0000   0.0000   0.0000   0.0000

          k = 0.5600-0.0000 0.0000 (  3015 PWs)   bands (ev):

   -14.7338 -14.6584 -11.8668 -11.8091 -10.2440 -10.2004  -2.4792  -1.8960
     0.9514   1.4406   9.7407  10.1639

     occupation numbers 
     1.0000   1.0000   1.0000   1.0000   1.0000   1.0000   1.0000   1.0000
     0.0000   0.0000   0.0000   0.0000

          k =-0.2800 0.5312 0.0000 (  3006 PWs)   bands (ev):

   -14.0532 -13.9814 -12.4403 -12.3792 -10.5904 -10.5452  -1.8114  -1.2576
     0.2742   0.7799   9.5346  10.9187

     occupation numbers 
     1.0000   1.0000   1.0000   1.0000   1.0000   1.0000   1.0000   1.0000
     0.0000   0.0000   0.0000   0.0000

          k =-0.3200 0.5081 0.0000 (  3006 PWs)   bands (ev):

   -14.0533 -13.9815 -12.4400 -12.3789 -10.5906 -10.5454  -1.8113  -1.2582
     0.2746   0.7803   9.5345  10.9187

     occupation numbers 
     1.0000   1.0000   1.0000   1.0000   1.0000   1.0000   1.0000   1.0000
     0.0000   0.0000   0.0000   0.0000

          k = 0.6000 0.0231 0.0000 (  3006 PWs)   bands (ev):

   -14.0533 -13.9816 -12.4398 -12.3785 -10.5909 -10.5456  -1.8114  -1.2586
     0.2741   0.7815   9.5342  10.9181

     occupation numbers 
     1.0000   1.0000   1.0000   1.0000   1.0000   1.0000   1.0000   1.0000
     0.0000   0.0000   0.0000   0.0000

          k =-0.3200-0.5081 0.0000 (  3006 PWs)   bands (ev):

   -14.0533 -13.9815 -12.4400 -12.3789 -10.5906 -10.5454  -1.8113  -1.2582
     0.2746   0.7803   9.5345  10.9187

     occupation numbers 
     1.0000   1.0000   1.0000   1.0000   1.0000   1.0000   1.0000   1.0000
     0.0000   0.0000   0.0000   0.0000

          k = 0.6000-0.0231 0.0000 (  3006 PWs)   bands (ev):

   -14.0533 -13.9816 -12.4398 -12.3785 -10.5909 -10.5456  -1.8114  -1.2586
     0.2741   0.7815   9.5342  10.9181

     occupation numbers 
     1.0000   1.0000   1.0000   1.0000   1.0000   1.0000   1.0000   1.0000
     0.0000   0.0000   0.0000   0.0000

          k =-0.3600 0.5312 0.0000 (  3002 PWs)   bands (ev):

   -13.5920 -13.5224 -12.8739 -12.8110 -10.6987 -10.6530  -1.4430  -0.9107
    -0.0960   0.4257   9.4558  11.0496

     occupation numbers 
     1.0000   1.0000   1.0000   1.0000   1.0000   1.0000   1.0000   1.0000
     0.0000   0.0000   0.0000   0.0000

          k = 0.6400 0.0462 0.0000 (  3002 PWs)   bands (ev):

   -13.5920 -13.5224 -12.8739 -12.8110 -10.6987 -10.6530  -1.4430  -0.9107
    -0.0960   0.4257   9.4558  11.0496

     occupation numbers 
     1.0000   1.0000   1.0000   1.0000   1.0000   1.0000   1.0000   1.0000
     0.0000   0.0000   0.0000   0.0000

          k =-0.3200 0.5543 0.0000 (  3017 PWs)   bands (ev):

   -13.4271 -13.3590 -12.8218 -12.7578 -10.9871 -10.9405  -1.1450  -0.6142
    -0.3654   0.1475   9.3348  10.9986

     occupation numbers 
     1.0000   1.0000   1.0000   1.0000   1.0000   1.0000   1.0000   1.0000
     0.0000   0.0000   0.0000   0.0000

          k = 0.6400-0.0000 0.0000 (  3017 PWs)   bands (ev):

   -13.4273 -13.3592 -12.8215 -12.7573 -10.9873 -10.9407  -1.1451  -0.6145
    -0.3663   0.1490   9.3347  10.9984

     occupation numbers 
     1.0000   1.0000   1.0000   1.0000   1.0000   1.0000   1.0000   1.0000
     0.0000   0.0000   0.0000   0.0000

     the Fermi energy is    -0.5510 ev

     Writing output data file g.dos1.save

     init_run     :      2.00s CPU      2.05s WALL (       1 calls)
     electrons    :    533.06s CPU    535.39s WALL (       1 calls)

     Called by init_run:
     wfcinit      :      0.00s CPU      0.00s WALL (       1 calls)
     potinit      :      0.67s CPU      0.70s WALL (       1 calls)

     Called by electrons:
     c_bands      :    533.03s CPU    535.36s WALL (       1 calls)
     v_of_rho     :      0.60s CPU      0.62s WALL (       1 calls)
     v_h          :      0.01s CPU      0.01s WALL (       1 calls)
     v_xc         :      0.59s CPU      0.60s WALL (       1 calls)
     newd         :      0.31s CPU      0.31s WALL (       1 calls)

     Called by c_bands:
     init_us_2    :      0.71s CPU      0.71s WALL (     626 calls)
     cegterg      :    500.04s CPU    502.19s WALL (    1482 calls)

     Called by sum_band:

     Called by *egterg:
     h_psi        :    280.15s CPU    282.01s WALL (   25782 calls)
     s_psi        :     40.87s CPU     40.97s WALL (   25782 calls)
     g_psi        :      2.68s CPU      2.69s WALL (   23674 calls)
     cdiaghg      :     17.36s CPU     17.43s WALL (   24300 calls)
     cegterg:over :     73.77s CPU     73.94s WALL (   23674 calls)
     cegterg:upda :     53.41s CPU     53.50s WALL (   23674 calls)
     cegterg:last :     43.92s CPU     43.94s WALL (    3983 calls)

     Called by h_psi:
     h_psi:vloc   :    192.32s CPU    193.80s WALL (   25782 calls)
     h_psi:vnl    :     86.37s CPU     86.75s WALL (   25782 calls)
     add_vuspsi   :     41.07s CPU     41.20s WALL (   25782 calls)

     General routines
     calbec       :     45.11s CPU     45.39s WALL (   25782 calls)
     fft          :      0.21s CPU      0.22s WALL (      22 calls)
     ffts         :      0.00s CPU      0.00s WALL (       2 calls)
     fftw         :    137.68s CPU    138.74s WALL (  295610 calls)
     interpolate  :      0.02s CPU      0.02s WALL (       2 calls)

     Parallel routines
     fft_scatter  :     22.26s CPU     22.42s WALL (  295634 calls)

     PWSCF        :  8m58.89s CPU     9m 1.97s WALL


   This run was terminated on:   8:51: 9   1May2020            

=------------------------------------------------------------------------------=
   JOB DONE.
=------------------------------------------------------------------------------=
