
     Program PWSCF v.5.1 starts on  1May2020 at  6:14:17 

     This program is part of the open-source Quantum ESPRESSO suite
     for quantum simulation of materials; please cite
         "P. Giannozzi et al., J. Phys.:Condens. Matter 21 395502 (2009);
          URL http://www.quantum-espresso.org", 
     in publications or presentations arising from this work. More details at
     http://www.quantum-espresso.org/quote

     Parallel version (MPI), running on     1 processors
     Waiting for input...
     Reading input from standard input

     Current dimensions of program PWSCF are:
     Max number of different atomic species (ntypx) = 10
     Max number of k-points (npk) =  40000
     Max angular momentum in pseudopotentials (lmaxx) =  3

     IMPORTANT: XC functional enforced from input :
     Exchange-correlation      = PBE ( 1  4  3  4 0)
     Any further DFT definition will be discarded
     Please, verify this is what you really want

               file C.pbe-rrkjus.UPF: wavefunction(s)  2S 2P renormalized

     Subspace diagonalization in iterative solution of the eigenvalue problem:
     a serial algorithm will be used


     G-vector sticks info
     --------------------
     sticks:   dense  smooth     PW     G-vecs:    dense   smooth      PW
     Sum         595     241     85                96043    24369    4587

     Generating pointlists ...
     new r_m :   0.2381 (alat units)  1.1104 (a.u.) for type    1

     Title: 
     graphene                                                                   


     bravais-lattice index     =           12
     lattice parameter (alat)  =       4.6627  a.u.
     unit-cell volume          =     711.6007 (a.u.)^3
     number of atoms/cell      =            4
     number of atomic types    =            1
     number of electrons       =        16.00
     number of Kohn-Sham states=           16
     kinetic-energy cutoff     =      40.0000  Ry
     charge density cutoff     =     400.0000  Ry
     convergence threshold     =      1.0E-10
     mixing beta               =       0.3000
     number of iterations used =            8  plain     mixing
     Exchange-correlation      = PBE ( 1  4  3  4 0)

     celldm(1)=   4.662710  celldm(2)=   1.000000  celldm(3)=   8.105698
     celldm(4)=  -0.500000  celldm(5)=   0.000000  celldm(6)=   0.000000

     crystal axes: (cart. coord. in units of alat)
               a(1) = (   1.000000   0.000000   0.000000 )  
               a(2) = (  -0.500000   0.866025   0.000000 )  
               a(3) = (   0.000000   0.000000   8.105698 )  

     reciprocal axes: (cart. coord. in units 2 pi/alat)
               b(1) = (  1.000000  0.577350 -0.000000 )  
               b(2) = (  0.000000  1.154701  0.000000 )  
               b(3) = (  0.000000 -0.000000  0.123370 )  


     PseudoPot. # 1 for C  read from file:
     ../pseudo/C.pbe-rrkjus.UPF
     MD5 check sum: 00fb224312de0c5b6853bd333518df6f
     Pseudo is Ultrasoft, Zval =  4.0
     Generated by new atomic code, or converted to UPF format
     Using radial grid of  627 points,  4 beta functions with: 
                l(1) =   0
                l(2) =   0
                l(3) =   1
                l(4) =   1
     Q(r) pseudized with 0 coefficients 


     atomic species   valence    mass     pseudopotential
        C              4.00    12.01100     C ( 1.00)

     Starting magnetic structure 
     atomic species   magnetization
        C           -0.500

     No symmetry found
          (note:  3 additional sym.ops. were found but ignored
           their fractional translations are incommensurate with FFT grid)

                                    s                        frac. trans.

      isym =  1     identity                                     

 cryst.   s( 1) = (     1          0          0      )
                  (     0          1          0      )
                  (     0          0          1      )

 cart.    s( 1) = (  1.0000000  0.0000000  0.0000000 )
                  (  0.0000000  1.0000000  0.0000000 )
                  (  0.0000000  0.0000000  1.0000000 )


     point group C_1 (1)    
     there are  1 classes
     the character table:

       E    
A      1.00

     the symmetry operations in each class:
     E        1

   Cartesian axes

     site n.     atom                  positions (alat units)
         1           C   tau(   1) = (   0.0000000   0.0000000   2.0264246  )
         2           C   tau(   2) = (   0.0000000   0.5773284   2.0264246  )
         3           C   tau(   3) = (   0.4052849   0.0000000   3.3638648  )
         4           C   tau(   4) = (   0.4052849   0.5773284   3.3638648  )

   Crystallographic axes

     site n.     atom                  positions (cryst. coord.)
         1           C   tau(   1) = (  0.0000000  0.0000000  0.2500000  )
         2           C   tau(   2) = (  0.3333207  0.6666414  0.2500000  )
         3           C   tau(   3) = (  0.4052849  0.0000000  0.4150000  )
         4           C   tau(   4) = (  0.7386056  0.6666414  0.4150000  )

     number of k points=   148  Marzari-Vanderbilt smearing, width (Ry)=  0.0001
                       cart. coord. in units 2pi/alat
        k(    1) = (   0.0000000   0.0000000   0.0000000), wk =   0.0069444
        k(    2) = (   0.0000000   0.0962250   0.0000000), wk =   0.0138889
        k(    3) = (   0.0000000   0.1924501   0.0000000), wk =   0.0138889
        k(    4) = (   0.0000000   0.2886751   0.0000000), wk =   0.0138889
        k(    5) = (   0.0000000   0.3849002   0.0000000), wk =   0.0138889
        k(    6) = (   0.0000000   0.4811252   0.0000000), wk =   0.0138889
        k(    7) = (   0.0000000  -0.5773503   0.0000000), wk =   0.0069444
        k(    8) = (   0.0833333   0.1443376   0.0000000), wk =   0.0138889
        k(    9) = (   0.0833333   0.2405626   0.0000000), wk =   0.0138889
        k(   10) = (   0.0833333   0.3367877   0.0000000), wk =   0.0138889
        k(   11) = (   0.0833333   0.4330127   0.0000000), wk =   0.0138889
        k(   12) = (   0.0833333   0.5292377   0.0000000), wk =   0.0138889
        k(   13) = (   0.1666667   0.2886751   0.0000000), wk =   0.0138889
        k(   14) = (   0.1666667   0.3849002   0.0000000), wk =   0.0138889
        k(   15) = (   0.1666667   0.4811252   0.0000000), wk =   0.0138889
        k(   16) = (   0.1666667   0.5773503   0.0000000), wk =   0.0138889
        k(   17) = (   0.2500000   0.4330127   0.0000000), wk =   0.0138889
        k(   18) = (   0.2500000   0.5292377   0.0000000), wk =   0.0138889
        k(   19) = (   0.3333333   0.5773503   0.0000000), wk =   0.0138889
        k(   20) = (  -0.0833333   0.0481125   0.0000000), wk =   0.0138889
        k(   21) = (   0.0833333   0.0481125   0.0000000), wk =   0.0138889
        k(   22) = (  -0.1666667   0.0962250   0.0000000), wk =   0.0138889
        k(   23) = (   0.1666667   0.0962250   0.0000000), wk =   0.0138889
        k(   24) = (  -0.2500000   0.1443376   0.0000000), wk =   0.0138889
        k(   25) = (   0.2500000   0.1443376   0.0000000), wk =   0.0138889
        k(   26) = (  -0.3333333   0.1924501   0.0000000), wk =   0.0138889
        k(   27) = (   0.3333333   0.1924501   0.0000000), wk =   0.0138889
        k(   28) = (  -0.4166667   0.2405626   0.0000000), wk =   0.0138889
        k(   29) = (   0.4166667   0.2405626   0.0000000), wk =   0.0138889
        k(   30) = (   0.5000000  -0.2886751   0.0000000), wk =   0.0069444
        k(   31) = (  -0.5000000  -0.2886751   0.0000000), wk =   0.0069444
        k(   32) = (  -0.0833333   0.1443376   0.0000000), wk =   0.0138889
        k(   33) = (   0.1666667  -0.0000000   0.0000000), wk =   0.0138889
        k(   34) = (  -0.0833333   0.2405626   0.0000000), wk =   0.0138889
        k(   35) = (  -0.1666667   0.1924501   0.0000000), wk =   0.0138889
        k(   36) = (   0.2500000   0.0481125   0.0000000), wk =   0.0138889
        k(   37) = (  -0.1666667  -0.1924501   0.0000000), wk =   0.0138889
        k(   38) = (   0.2500000  -0.0481125   0.0000000), wk =   0.0138889
        k(   39) = (  -0.0833333   0.3367877   0.0000000), wk =   0.0138889
        k(   40) = (  -0.2500000   0.2405626   0.0000000), wk =   0.0138889
        k(   41) = (   0.3333333   0.0962250   0.0000000), wk =   0.0138889
        k(   42) = (  -0.2500000  -0.2405626   0.0000000), wk =   0.0138889
        k(   43) = (   0.3333333  -0.0962250   0.0000000), wk =   0.0138889
        k(   44) = (  -0.0833333   0.4330127   0.0000000), wk =   0.0138889
        k(   45) = (  -0.3333333   0.2886751   0.0000000), wk =   0.0138889
        k(   46) = (   0.4166667   0.1443376   0.0000000), wk =   0.0138889
        k(   47) = (  -0.3333333  -0.2886751   0.0000000), wk =   0.0138889
        k(   48) = (   0.4166667  -0.1443376   0.0000000), wk =   0.0138889
        k(   49) = (  -0.0833333   0.5292377   0.0000000), wk =   0.0138889
        k(   50) = (  -0.4166667   0.3367877   0.0000000), wk =   0.0138889
        k(   51) = (   0.5000000   0.1924501   0.0000000), wk =   0.0138889
        k(   52) = (  -0.4166667  -0.3367877   0.0000000), wk =   0.0138889
        k(   53) = (   0.5000000  -0.1924501   0.0000000), wk =   0.0138889
        k(   54) = (  -0.1666667   0.2886751   0.0000000), wk =   0.0138889
        k(   55) = (   0.3333333  -0.0000000   0.0000000), wk =   0.0138889
        k(   56) = (  -0.1666667   0.3849002   0.0000000), wk =   0.0138889
        k(   57) = (  -0.2500000   0.3367877   0.0000000), wk =   0.0138889
        k(   58) = (   0.4166667   0.0481125   0.0000000), wk =   0.0138889
        k(   59) = (  -0.2500000  -0.3367877   0.0000000), wk =   0.0138889
        k(   60) = (   0.4166667  -0.0481125   0.0000000), wk =   0.0138889
        k(   61) = (  -0.1666667   0.4811252   0.0000000), wk =   0.0138889
        k(   62) = (  -0.3333333   0.3849002   0.0000000), wk =   0.0138889
        k(   63) = (   0.5000000   0.0962250   0.0000000), wk =   0.0138889
        k(   64) = (  -0.3333333  -0.3849002   0.0000000), wk =   0.0138889
        k(   65) = (   0.5000000  -0.0962250   0.0000000), wk =   0.0138889
        k(   66) = (  -0.4166667   0.4330127   0.0000000), wk =   0.0138889
        k(   67) = (   0.5833333   0.1443376   0.0000000), wk =   0.0138889
        k(   68) = (  -0.2500000   0.4330127   0.0000000), wk =   0.0138889
        k(   69) = (   0.5000000   0.0000000   0.0000000), wk =   0.0138889
        k(   70) = (  -0.2500000   0.5292377   0.0000000), wk =   0.0138889
        k(   71) = (  -0.3333333   0.4811252   0.0000000), wk =   0.0138889
        k(   72) = (   0.5833333   0.0481125   0.0000000), wk =   0.0138889
        k(   73) = (  -0.3333333  -0.4811252   0.0000000), wk =   0.0138889
        k(   74) = (   0.5833333  -0.0481125   0.0000000), wk =   0.0138889
        k(   75) = (   0.0000000   0.0000000   0.0000000), wk =   0.0069444
        k(   76) = (   0.0000000   0.0962250   0.0000000), wk =   0.0138889
        k(   77) = (   0.0000000   0.1924501   0.0000000), wk =   0.0138889
        k(   78) = (   0.0000000   0.2886751   0.0000000), wk =   0.0138889
        k(   79) = (   0.0000000   0.3849002   0.0000000), wk =   0.0138889
        k(   80) = (   0.0000000   0.4811252   0.0000000), wk =   0.0138889
        k(   81) = (   0.0000000  -0.5773503   0.0000000), wk =   0.0069444
        k(   82) = (   0.0833333   0.1443376   0.0000000), wk =   0.0138889
        k(   83) = (   0.0833333   0.2405626   0.0000000), wk =   0.0138889
        k(   84) = (   0.0833333   0.3367877   0.0000000), wk =   0.0138889
        k(   85) = (   0.0833333   0.4330127   0.0000000), wk =   0.0138889
        k(   86) = (   0.0833333   0.5292377   0.0000000), wk =   0.0138889
        k(   87) = (   0.1666667   0.2886751   0.0000000), wk =   0.0138889
        k(   88) = (   0.1666667   0.3849002   0.0000000), wk =   0.0138889
        k(   89) = (   0.1666667   0.4811252   0.0000000), wk =   0.0138889
        k(   90) = (   0.1666667   0.5773503   0.0000000), wk =   0.0138889
        k(   91) = (   0.2500000   0.4330127   0.0000000), wk =   0.0138889
        k(   92) = (   0.2500000   0.5292377   0.0000000), wk =   0.0138889
        k(   93) = (   0.3333333   0.5773503   0.0000000), wk =   0.0138889
        k(   94) = (  -0.0833333   0.0481125   0.0000000), wk =   0.0138889
        k(   95) = (   0.0833333   0.0481125   0.0000000), wk =   0.0138889
        k(   96) = (  -0.1666667   0.0962250   0.0000000), wk =   0.0138889
        k(   97) = (   0.1666667   0.0962250   0.0000000), wk =   0.0138889
        k(   98) = (  -0.2500000   0.1443376   0.0000000), wk =   0.0138889
        k(   99) = (   0.2500000   0.1443376   0.0000000), wk =   0.0138889
        k(  100) = (  -0.3333333   0.1924501   0.0000000), wk =   0.0138889
        k(  101) = (   0.3333333   0.1924501   0.0000000), wk =   0.0138889
        k(  102) = (  -0.4166667   0.2405626   0.0000000), wk =   0.0138889
        k(  103) = (   0.4166667   0.2405626   0.0000000), wk =   0.0138889
        k(  104) = (   0.5000000  -0.2886751   0.0000000), wk =   0.0069444
        k(  105) = (  -0.5000000  -0.2886751   0.0000000), wk =   0.0069444
        k(  106) = (  -0.0833333   0.1443376   0.0000000), wk =   0.0138889
        k(  107) = (   0.1666667  -0.0000000   0.0000000), wk =   0.0138889
        k(  108) = (  -0.0833333   0.2405626   0.0000000), wk =   0.0138889
        k(  109) = (  -0.1666667   0.1924501   0.0000000), wk =   0.0138889
        k(  110) = (   0.2500000   0.0481125   0.0000000), wk =   0.0138889
        k(  111) = (  -0.1666667  -0.1924501   0.0000000), wk =   0.0138889
        k(  112) = (   0.2500000  -0.0481125   0.0000000), wk =   0.0138889
        k(  113) = (  -0.0833333   0.3367877   0.0000000), wk =   0.0138889
        k(  114) = (  -0.2500000   0.2405626   0.0000000), wk =   0.0138889
        k(  115) = (   0.3333333   0.0962250   0.0000000), wk =   0.0138889
        k(  116) = (  -0.2500000  -0.2405626   0.0000000), wk =   0.0138889
        k(  117) = (   0.3333333  -0.0962250   0.0000000), wk =   0.0138889
        k(  118) = (  -0.0833333   0.4330127   0.0000000), wk =   0.0138889
        k(  119) = (  -0.3333333   0.2886751   0.0000000), wk =   0.0138889
        k(  120) = (   0.4166667   0.1443376   0.0000000), wk =   0.0138889
        k(  121) = (  -0.3333333  -0.2886751   0.0000000), wk =   0.0138889
        k(  122) = (   0.4166667  -0.1443376   0.0000000), wk =   0.0138889
        k(  123) = (  -0.0833333   0.5292377   0.0000000), wk =   0.0138889
        k(  124) = (  -0.4166667   0.3367877   0.0000000), wk =   0.0138889
        k(  125) = (   0.5000000   0.1924501   0.0000000), wk =   0.0138889
        k(  126) = (  -0.4166667  -0.3367877   0.0000000), wk =   0.0138889
        k(  127) = (   0.5000000  -0.1924501   0.0000000), wk =   0.0138889
        k(  128) = (  -0.1666667   0.2886751   0.0000000), wk =   0.0138889
        k(  129) = (   0.3333333  -0.0000000   0.0000000), wk =   0.0138889
        k(  130) = (  -0.1666667   0.3849002   0.0000000), wk =   0.0138889
        k(  131) = (  -0.2500000   0.3367877   0.0000000), wk =   0.0138889
        k(  132) = (   0.4166667   0.0481125   0.0000000), wk =   0.0138889
        k(  133) = (  -0.2500000  -0.3367877   0.0000000), wk =   0.0138889
        k(  134) = (   0.4166667  -0.0481125   0.0000000), wk =   0.0138889
        k(  135) = (  -0.1666667   0.4811252   0.0000000), wk =   0.0138889
        k(  136) = (  -0.3333333   0.3849002   0.0000000), wk =   0.0138889
        k(  137) = (   0.5000000   0.0962250   0.0000000), wk =   0.0138889
        k(  138) = (  -0.3333333  -0.3849002   0.0000000), wk =   0.0138889
        k(  139) = (   0.5000000  -0.0962250   0.0000000), wk =   0.0138889
        k(  140) = (  -0.4166667   0.4330127   0.0000000), wk =   0.0138889
        k(  141) = (   0.5833333   0.1443376   0.0000000), wk =   0.0138889
        k(  142) = (  -0.2500000   0.4330127   0.0000000), wk =   0.0138889
        k(  143) = (   0.5000000   0.0000000   0.0000000), wk =   0.0138889
        k(  144) = (  -0.2500000   0.5292377   0.0000000), wk =   0.0138889
        k(  145) = (  -0.3333333   0.4811252   0.0000000), wk =   0.0138889
        k(  146) = (   0.5833333   0.0481125   0.0000000), wk =   0.0138889
        k(  147) = (  -0.3333333  -0.4811252   0.0000000), wk =   0.0138889
        k(  148) = (   0.5833333  -0.0481125   0.0000000), wk =   0.0138889

                       cryst. coord.
        k(    1) = (   0.0000000   0.0000000   0.0000000), wk =   0.0069444
        k(    2) = (   0.0000000   0.0833333   0.0000000), wk =   0.0138889
        k(    3) = (   0.0000000   0.1666667   0.0000000), wk =   0.0138889
        k(    4) = (   0.0000000   0.2500000   0.0000000), wk =   0.0138889
        k(    5) = (   0.0000000   0.3333333   0.0000000), wk =   0.0138889
        k(    6) = (   0.0000000   0.4166667   0.0000000), wk =   0.0138889
        k(    7) = (   0.0000000  -0.5000000   0.0000000), wk =   0.0069444
        k(    8) = (   0.0833333   0.0833333   0.0000000), wk =   0.0138889
        k(    9) = (   0.0833333   0.1666667   0.0000000), wk =   0.0138889
        k(   10) = (   0.0833333   0.2500000   0.0000000), wk =   0.0138889
        k(   11) = (   0.0833333   0.3333333   0.0000000), wk =   0.0138889
        k(   12) = (   0.0833333   0.4166667   0.0000000), wk =   0.0138889
        k(   13) = (   0.1666667   0.1666667   0.0000000), wk =   0.0138889
        k(   14) = (   0.1666667   0.2500000   0.0000000), wk =   0.0138889
        k(   15) = (   0.1666667   0.3333333   0.0000000), wk =   0.0138889
        k(   16) = (   0.1666667   0.4166667   0.0000000), wk =   0.0138889
        k(   17) = (   0.2500000   0.2500000   0.0000000), wk =   0.0138889
        k(   18) = (   0.2500000   0.3333333   0.0000000), wk =   0.0138889
        k(   19) = (   0.3333333   0.3333333   0.0000000), wk =   0.0138889
        k(   20) = (  -0.0833333   0.0833333   0.0000000), wk =   0.0138889
        k(   21) = (   0.0833333   0.0000000   0.0000000), wk =   0.0138889
        k(   22) = (  -0.1666667   0.1666667   0.0000000), wk =   0.0138889
        k(   23) = (   0.1666667   0.0000000   0.0000000), wk =   0.0138889
        k(   24) = (  -0.2500000   0.2500000   0.0000000), wk =   0.0138889
        k(   25) = (   0.2500000   0.0000000   0.0000000), wk =   0.0138889
        k(   26) = (  -0.3333333   0.3333333   0.0000000), wk =   0.0138889
        k(   27) = (   0.3333333   0.0000000   0.0000000), wk =   0.0138889
        k(   28) = (  -0.4166667   0.4166667   0.0000000), wk =   0.0138889
        k(   29) = (   0.4166667   0.0000000   0.0000000), wk =   0.0138889
        k(   30) = (   0.5000000  -0.5000000   0.0000000), wk =   0.0069444
        k(   31) = (  -0.5000000   0.0000000   0.0000000), wk =   0.0069444
        k(   32) = (  -0.0833333   0.1666667   0.0000000), wk =   0.0138889
        k(   33) = (   0.1666667  -0.0833333   0.0000000), wk =   0.0138889
        k(   34) = (  -0.0833333   0.2500000   0.0000000), wk =   0.0138889
        k(   35) = (  -0.1666667   0.2500000   0.0000000), wk =   0.0138889
        k(   36) = (   0.2500000  -0.0833333   0.0000000), wk =   0.0138889
        k(   37) = (  -0.1666667  -0.0833333   0.0000000), wk =   0.0138889
        k(   38) = (   0.2500000  -0.1666667   0.0000000), wk =   0.0138889
        k(   39) = (  -0.0833333   0.3333333   0.0000000), wk =   0.0138889
        k(   40) = (  -0.2500000   0.3333333   0.0000000), wk =   0.0138889
        k(   41) = (   0.3333333  -0.0833333   0.0000000), wk =   0.0138889
        k(   42) = (  -0.2500000  -0.0833333   0.0000000), wk =   0.0138889
        k(   43) = (   0.3333333  -0.2500000   0.0000000), wk =   0.0138889
        k(   44) = (  -0.0833333   0.4166667   0.0000000), wk =   0.0138889
        k(   45) = (  -0.3333333   0.4166667   0.0000000), wk =   0.0138889
        k(   46) = (   0.4166667  -0.0833333   0.0000000), wk =   0.0138889
        k(   47) = (  -0.3333333  -0.0833333   0.0000000), wk =   0.0138889
        k(   48) = (   0.4166667  -0.3333333   0.0000000), wk =   0.0138889
        k(   49) = (  -0.0833333   0.5000000   0.0000000), wk =   0.0138889
        k(   50) = (  -0.4166667   0.5000000   0.0000000), wk =   0.0138889
        k(   51) = (   0.5000000  -0.0833333   0.0000000), wk =   0.0138889
        k(   52) = (  -0.4166667  -0.0833333   0.0000000), wk =   0.0138889
        k(   53) = (   0.5000000  -0.4166667   0.0000000), wk =   0.0138889
        k(   54) = (  -0.1666667   0.3333333   0.0000000), wk =   0.0138889
        k(   55) = (   0.3333333  -0.1666667   0.0000000), wk =   0.0138889
        k(   56) = (  -0.1666667   0.4166667   0.0000000), wk =   0.0138889
        k(   57) = (  -0.2500000   0.4166667   0.0000000), wk =   0.0138889
        k(   58) = (   0.4166667  -0.1666667   0.0000000), wk =   0.0138889
        k(   59) = (  -0.2500000  -0.1666667   0.0000000), wk =   0.0138889
        k(   60) = (   0.4166667  -0.2500000   0.0000000), wk =   0.0138889
        k(   61) = (  -0.1666667   0.5000000   0.0000000), wk =   0.0138889
        k(   62) = (  -0.3333333   0.5000000   0.0000000), wk =   0.0138889
        k(   63) = (   0.5000000  -0.1666667   0.0000000), wk =   0.0138889
        k(   64) = (  -0.3333333  -0.1666667   0.0000000), wk =   0.0138889
        k(   65) = (   0.5000000  -0.3333333   0.0000000), wk =   0.0138889
        k(   66) = (  -0.4166667   0.5833333   0.0000000), wk =   0.0138889
        k(   67) = (   0.5833333  -0.1666667   0.0000000), wk =   0.0138889
        k(   68) = (  -0.2500000   0.5000000   0.0000000), wk =   0.0138889
        k(   69) = (   0.5000000  -0.2500000   0.0000000), wk =   0.0138889
        k(   70) = (  -0.2500000   0.5833333   0.0000000), wk =   0.0138889
        k(   71) = (  -0.3333333   0.5833333   0.0000000), wk =   0.0138889
        k(   72) = (   0.5833333  -0.2500000   0.0000000), wk =   0.0138889
        k(   73) = (  -0.3333333  -0.2500000   0.0000000), wk =   0.0138889
        k(   74) = (   0.5833333  -0.3333333   0.0000000), wk =   0.0138889
        k(   75) = (   0.0000000   0.0000000   0.0000000), wk =   0.0069444
        k(   76) = (   0.0000000   0.0833333   0.0000000), wk =   0.0138889
        k(   77) = (   0.0000000   0.1666667   0.0000000), wk =   0.0138889
        k(   78) = (   0.0000000   0.2500000   0.0000000), wk =   0.0138889
        k(   79) = (   0.0000000   0.3333333   0.0000000), wk =   0.0138889
        k(   80) = (   0.0000000   0.4166667   0.0000000), wk =   0.0138889
        k(   81) = (   0.0000000  -0.5000000   0.0000000), wk =   0.0069444
        k(   82) = (   0.0833333   0.0833333   0.0000000), wk =   0.0138889
        k(   83) = (   0.0833333   0.1666667   0.0000000), wk =   0.0138889
        k(   84) = (   0.0833333   0.2500000   0.0000000), wk =   0.0138889
        k(   85) = (   0.0833333   0.3333333   0.0000000), wk =   0.0138889
        k(   86) = (   0.0833333   0.4166667   0.0000000), wk =   0.0138889
        k(   87) = (   0.1666667   0.1666667   0.0000000), wk =   0.0138889
        k(   88) = (   0.1666667   0.2500000   0.0000000), wk =   0.0138889
        k(   89) = (   0.1666667   0.3333333   0.0000000), wk =   0.0138889
        k(   90) = (   0.1666667   0.4166667   0.0000000), wk =   0.0138889
        k(   91) = (   0.2500000   0.2500000   0.0000000), wk =   0.0138889
        k(   92) = (   0.2500000   0.3333333   0.0000000), wk =   0.0138889
        k(   93) = (   0.3333333   0.3333333   0.0000000), wk =   0.0138889
        k(   94) = (  -0.0833333   0.0833333   0.0000000), wk =   0.0138889
        k(   95) = (   0.0833333   0.0000000   0.0000000), wk =   0.0138889
        k(   96) = (  -0.1666667   0.1666667   0.0000000), wk =   0.0138889
        k(   97) = (   0.1666667   0.0000000   0.0000000), wk =   0.0138889
        k(   98) = (  -0.2500000   0.2500000   0.0000000), wk =   0.0138889
        k(   99) = (   0.2500000   0.0000000   0.0000000), wk =   0.0138889
        k(  100) = (  -0.3333333   0.3333333   0.0000000), wk =   0.0138889
        k(  101) = (   0.3333333   0.0000000   0.0000000), wk =   0.0138889
        k(  102) = (  -0.4166667   0.4166667   0.0000000), wk =   0.0138889
        k(  103) = (   0.4166667   0.0000000   0.0000000), wk =   0.0138889
        k(  104) = (   0.5000000  -0.5000000   0.0000000), wk =   0.0069444
        k(  105) = (  -0.5000000   0.0000000   0.0000000), wk =   0.0069444
        k(  106) = (  -0.0833333   0.1666667   0.0000000), wk =   0.0138889
        k(  107) = (   0.1666667  -0.0833333   0.0000000), wk =   0.0138889
        k(  108) = (  -0.0833333   0.2500000   0.0000000), wk =   0.0138889
        k(  109) = (  -0.1666667   0.2500000   0.0000000), wk =   0.0138889
        k(  110) = (   0.2500000  -0.0833333   0.0000000), wk =   0.0138889
        k(  111) = (  -0.1666667  -0.0833333   0.0000000), wk =   0.0138889
        k(  112) = (   0.2500000  -0.1666667   0.0000000), wk =   0.0138889
        k(  113) = (  -0.0833333   0.3333333   0.0000000), wk =   0.0138889
        k(  114) = (  -0.2500000   0.3333333   0.0000000), wk =   0.0138889
        k(  115) = (   0.3333333  -0.0833333   0.0000000), wk =   0.0138889
        k(  116) = (  -0.2500000  -0.0833333   0.0000000), wk =   0.0138889
        k(  117) = (   0.3333333  -0.2500000   0.0000000), wk =   0.0138889
        k(  118) = (  -0.0833333   0.4166667   0.0000000), wk =   0.0138889
        k(  119) = (  -0.3333333   0.4166667   0.0000000), wk =   0.0138889
        k(  120) = (   0.4166667  -0.0833333   0.0000000), wk =   0.0138889
        k(  121) = (  -0.3333333  -0.0833333   0.0000000), wk =   0.0138889
        k(  122) = (   0.4166667  -0.3333333   0.0000000), wk =   0.0138889
        k(  123) = (  -0.0833333   0.5000000   0.0000000), wk =   0.0138889
        k(  124) = (  -0.4166667   0.5000000   0.0000000), wk =   0.0138889
        k(  125) = (   0.5000000  -0.0833333   0.0000000), wk =   0.0138889
        k(  126) = (  -0.4166667  -0.0833333   0.0000000), wk =   0.0138889
        k(  127) = (   0.5000000  -0.4166667   0.0000000), wk =   0.0138889
        k(  128) = (  -0.1666667   0.3333333   0.0000000), wk =   0.0138889
        k(  129) = (   0.3333333  -0.1666667   0.0000000), wk =   0.0138889
        k(  130) = (  -0.1666667   0.4166667   0.0000000), wk =   0.0138889
        k(  131) = (  -0.2500000   0.4166667   0.0000000), wk =   0.0138889
        k(  132) = (   0.4166667  -0.1666667   0.0000000), wk =   0.0138889
        k(  133) = (  -0.2500000  -0.1666667   0.0000000), wk =   0.0138889
        k(  134) = (   0.4166667  -0.2500000   0.0000000), wk =   0.0138889
        k(  135) = (  -0.1666667   0.5000000   0.0000000), wk =   0.0138889
        k(  136) = (  -0.3333333   0.5000000   0.0000000), wk =   0.0138889
        k(  137) = (   0.5000000  -0.1666667   0.0000000), wk =   0.0138889
        k(  138) = (  -0.3333333  -0.1666667   0.0000000), wk =   0.0138889
        k(  139) = (   0.5000000  -0.3333333   0.0000000), wk =   0.0138889
        k(  140) = (  -0.4166667   0.5833333   0.0000000), wk =   0.0138889
        k(  141) = (   0.5833333  -0.1666667   0.0000000), wk =   0.0138889
        k(  142) = (  -0.2500000   0.5000000   0.0000000), wk =   0.0138889
        k(  143) = (   0.5000000  -0.2500000   0.0000000), wk =   0.0138889
        k(  144) = (  -0.2500000   0.5833333   0.0000000), wk =   0.0138889
        k(  145) = (  -0.3333333   0.5833333   0.0000000), wk =   0.0138889
        k(  146) = (   0.5833333  -0.2500000   0.0000000), wk =   0.0138889
        k(  147) = (  -0.3333333  -0.2500000   0.0000000), wk =   0.0138889
        k(  148) = (   0.5833333  -0.3333333   0.0000000), wk =   0.0138889

     Dense  grid:    96043 G-vectors     FFT dimensions: (  30,  30, 243)

     Smooth grid:    24369 G-vectors     FFT dimensions: (  20,  20, 160)

     Largest allocated arrays     est. size (Mb)     dimensions
        Kohn-Sham Wavefunctions         0.75 Mb     (    3054,   16)
        NL pseudopotentials             1.49 Mb     (    3054,   32)
        Each V/rho on FFT grid          6.67 Mb     (  218700,   2)
        Each G-vector array             0.73 Mb     (   96043)
        G-vector shells                 0.04 Mb     (    4763)
     Largest temporary arrays     est. size (Mb)     dimensions
        Auxiliary wavefunctions         2.98 Mb     (    3054,   64)
        Each subspace H/S matrix        0.06 Mb     (      64,   64)
        Each <psi_i|beta_j> matrix      0.01 Mb     (      32,   16)
        Arrays for rho mixing          26.70 Mb     (  218700,    8)

     Initial potential from superposition of free atoms

     starting charge   15.99979, renormalised to   16.00000

     negative rho (up, down):  2.697E-06 8.092E-06
     Starting wfc are   16 randomized atomic wfcs

     total cpu time spent up to now is        9.2 secs

     per-process dynamical memory:   163.4 Mb

     Self-consistent Calculation

     iteration #  1     ecut=    40.00 Ry     beta=0.30
     Davidson diagonalization with overlap
     ethr =  1.00E-02,  avg # of iterations =  6.1

     negative rho (up, down):  1.510E-06 4.958E-06

     Magnetic moment per site:
     atom:    1    charge:    1.6477    magn:   -0.5747    constr:    0.0000
     atom:    2    charge:    1.6477    magn:   -0.5747    constr:    0.0000
     atom:    3    charge:    1.6473    magn:   -0.5745    constr:    0.0000
     atom:    4    charge:    1.6473    magn:   -0.5745    constr:    0.0000

     total cpu time spent up to now is       47.2 secs

 ------ SPIN UP ------------


          k = 0.0000 0.0000 0.0000     band energies (ev):

   -21.7718 -21.6319  -9.5159  -8.5794  -5.8682  -5.8660  -5.8591  -5.8539
     3.3215   3.8379   4.6918   5.8278   5.8496   5.8613   5.8793   5.8887

     occupation numbers 
     1.0000   1.0000   1.0000   1.0000   1.0000   1.0000   1.0000   1.0000
     0.0000   0.0000   0.0000   0.0000   0.0000   0.0000   0.0000   0.0000

          k = 0.0000 0.0962 0.0000     band energies (ev):

   -21.6114 -21.4728  -9.3210  -8.3909  -6.4737  -6.4608  -6.1856  -6.1703
     3.5374   4.0596   5.0229   5.9468   5.9542   6.1031   6.5142   6.5528

     occupation numbers 
     1.0000   1.0000   1.0000   1.0000   1.0000   1.0000   1.0000   1.0000
     0.0000   0.0000   0.0000   0.0000   0.0000   0.0000   0.0000   0.0000

          k = 0.0000 0.1925 0.0000     band energies (ev):

   -21.1318 -20.9975  -8.7429  -8.0197  -7.9930  -7.8311  -6.9367  -6.9194
     4.1859   4.7211   5.8727   5.9668   6.1178   6.7716   7.2403   7.3932

     occupation numbers 
     1.0000   1.0000   1.0000   1.0000   1.0000   1.0000   1.0000   1.0000
     0.0000   0.0000   0.0000   0.0000   0.0000   0.0000   0.0000   0.0000

          k = 0.0000 0.2887 0.0000     band energies (ev):

   -20.3393 -20.2117 -10.0235  -9.9795  -7.8006  -7.7795  -7.7607  -6.9226
     5.2012   5.2539   5.4552   5.6956   5.8988   5.9410   6.8127   7.8487

     occupation numbers 
     1.0000   1.0000   1.0000   1.0000   1.0000   1.0000   1.0000   1.0000
     0.0000   0.0000   0.0000   0.0000   0.0000   0.0000   0.0000   0.0000

          k = 0.0000 0.3849 0.0000     band energies (ev):

   -19.2467 -19.1279 -12.1441 -12.0839  -8.4880  -8.4672  -6.5446  -5.7189
     2.9410   3.3858   5.4869   5.5908   6.8098   7.3790   8.4796   9.3969

     occupation numbers 
     1.0000   1.0000   1.0000   1.0000   1.0000   1.0000   1.0000   1.0000
     0.0000   0.0000   0.0000   0.0000   0.0000   0.0000   0.0000   0.0000

          k = 0.0000 0.4811 0.0000     band energies (ev):

   -17.8866 -17.7780 -14.1749 -14.0998  -8.9466  -8.9247  -5.1392  -4.3899
     0.8290   1.4394   5.2820   5.4217   8.6771   9.3197  10.4595  11.1930

     occupation numbers 
     1.0000   1.0000   1.0000   1.0000   1.0000   1.0000   1.0000   1.0000
     0.0000   0.0000   0.0000   0.0000   0.0000   0.0000   0.0000   0.0000

          k = 0.0000-0.5774 0.0000     band energies (ev):

   -16.6691 -16.5651 -15.6239 -15.5425  -9.1037  -9.0820  -4.3094  -3.6253
    -0.2508   0.4555   5.2092   5.3555  10.7857  10.8928  11.6971  12.0031

     occupation numbers 
     1.0000   1.0000   1.0000   1.0000   1.0000   1.0000   1.0000   1.0000
     0.0000   0.0000   0.0000   0.0000   0.0000   0.0000   0.0000   0.0000

          k = 0.0833 0.1443 0.0000     band energies (ev):

   -21.2913 -21.1556  -8.9340  -8.0172  -7.4450  -7.4368  -6.8139  -6.8073
     3.9692   4.5007   5.3679   6.2474   6.2625   6.5307   6.6619   7.3980

     occupation numbers 
     1.0000   1.0000   1.0000   1.0000   1.0000   1.0000   1.0000   1.0000
     0.0000   0.0000   0.0000   0.0000   0.0000   0.0000   0.0000   0.0000

          k = 0.0833 0.2406 0.0000     band energies (ev):

   -20.6553 -20.5251  -9.0762  -9.0483  -8.1723  -7.7637  -7.7454  -7.2818
     4.8308   5.3787   6.0687   6.1850   6.4109   6.4948   6.6540   7.4418

     occupation numbers 
     1.0000   1.0000   1.0000   1.0000   1.0000   1.0000   1.0000   1.0000
     0.0000   0.0000   0.0000   0.0000   0.0000   0.0000   0.0000   0.0000

          k = 0.0833 0.3368 0.0000     band energies (ev):

   -19.7126 -19.5903 -11.0645 -11.0160  -8.6181  -8.5932  -7.0667  -6.2189
     3.9656   4.2553   6.0499   6.2634   6.4854   6.7338   7.8226   8.7731

     occupation numbers 
     1.0000   1.0000   1.0000   1.0000   1.0000   1.0000   1.0000   1.0000
     0.0000   0.0000   0.0000   0.0000   0.0000   0.0000   0.0000   0.0000

          k = 0.0833 0.4330 0.0000     band energies (ev):

   -18.4829 -18.3704 -13.1120 -13.0463  -9.2336  -9.2057  -5.7018  -4.9175
     1.7785   2.2476   6.0412   6.1760   7.8516   8.4735   9.4066  10.2130

     occupation numbers 
     1.0000   1.0000   1.0000   1.0000   1.0000   1.0000   1.0000   1.0000
     0.0000   0.0000   0.0000   0.0000   0.0000   0.0000   0.0000   0.0000

          k = 0.0833 0.5292 0.0000     band energies (ev):

   -17.0461 -16.9431 -14.9883 -14.9095  -9.5528  -9.5238  -4.4122  -3.7099
     0.0326   0.6478   5.8958   6.0552   9.8710  10.5418  11.3935  12.0032

     occupation numbers 
     1.0000   1.0000   1.0000   1.0000   1.0000   1.0000   1.0000   1.0000
     0.0000   0.0000   0.0000   0.0000   0.0000   0.0000   0.0000   0.0000

          k = 0.1667 0.2887 0.0000     band energies (ev):

   -19.8689 -19.7455 -10.3506 -10.3359  -9.0367  -9.0276  -7.2414  -6.3905
     4.4454   4.5684   5.9088   6.4835   7.3723   7.6690   7.7285   8.4813

     occupation numbers 
     1.0000   1.0000   1.0000   1.0000   1.0000   1.0000   1.0000   1.0000
     0.0000   0.0000   0.0000   0.0000   0.0000   0.0000   0.0000   0.0000

          k = 0.1667 0.3849 0.0000     band energies (ev):

   -18.7875 -18.6732 -12.0182 -11.9751 -10.0580 -10.0281  -5.9998  -5.2037
     2.5385   2.7534   7.3927   7.8038   8.0720   8.0920  10.3842  10.5988

     occupation numbers 
     1.0000   1.0000   1.0000   1.0000   1.0000   1.0000   1.0000   1.0000
     0.0000   0.0000   0.0000   0.0000   0.0000   0.0000   0.0000   0.0000

          k = 0.1667 0.4811 0.0000     band energies (ev):

   -17.4482 -17.3442 -13.8622 -13.7961 -10.6225 -10.5827  -4.5906  -3.8667
     0.6350   1.0087   7.6815   7.8720   9.2791   9.8093  10.4460  11.8641

     occupation numbers 
     1.0000   1.0000   1.0000   1.0000   1.0000   1.0000   1.0000   1.0000
     0.0000   0.0000   0.0000   0.0000   0.0000   0.0000   0.0000   0.0000

          k = 0.1667 0.5774 0.0000     band energies (ev):

   -16.2602 -16.1606 -15.2397 -15.1656 -10.8036 -10.7616  -3.7179  -3.0457
    -0.4176   0.0446   7.6032   7.8138  10.6134  11.0771  11.1260  11.5561

     occupation numbers 
     1.0000   1.0000   1.0000   1.0000   1.0000   1.0000   1.0000   0.0000
     0.0000   0.0000   0.0000   0.0000   0.0000   0.0000   0.0000   0.0000

          k = 0.2500 0.4330 0.0000     band energies (ev):

   -17.5909 -17.4874 -13.0142 -12.9937 -11.4523 -11.4377  -4.6595  -3.9527
     0.9931   1.1558   9.0177   9.4666   9.9749  10.0253  10.3510  10.4311

     occupation numbers 
     1.0000   1.0000   1.0000   1.0000   1.0000   1.0000   1.0000   1.0000
     0.0000   0.0000   0.0000   0.0000   0.0000   0.0000   0.0000   0.0000

          k = 0.2500 0.5292 0.0000     band energies (ev):

   -16.2125 -16.1192 -14.3913 -14.3379 -12.1473 -12.1075  -3.2998  -2.6495
    -0.5003  -0.2866   9.5811   9.7520  10.2834  10.6393  10.7885  11.7088

     occupation numbers 
     1.0000   1.0000   1.0000   1.0000   1.0000   1.0000   0.0000   0.0000
     0.0000   0.0000   0.0000   0.0000   0.0000   0.0000   0.0000   0.0000

          k = 0.3333 0.5774 0.0000     band energies (ev):

   -15.0398 -15.0155 -14.9776 -14.9523 -12.9794 -12.9536  -1.9742  -1.8067
    -1.5319  -1.3405   9.3113  10.1302  11.0418  11.4289  11.7066  11.8854

     occupation numbers 
     1.0000   1.0000   1.0000   1.0000   1.0000   1.0000   0.0000   0.0000
     0.0000   0.0000   0.0000   0.0000   0.0000   0.0000   0.0000   0.0000

          k =-0.0833 0.0481 0.0000     band energies (ev):

   -21.6114 -21.4729  -9.3208  -8.3912  -6.4744  -6.4582  -6.1806  -6.1773
     3.5373   4.0586   4.9927   5.9345   5.9621   6.0790   6.5321   6.5366

     occupation numbers 
     1.0000   1.0000   1.0000   1.0000   1.0000   1.0000   1.0000   1.0000
     0.0000   0.0000   0.0000   0.0000   0.0000   0.0000   0.0000   0.0000

          k = 0.0833 0.0481 0.0000     band energies (ev):

   -21.6113 -21.4729  -9.3207  -8.3912  -6.4745  -6.4582  -6.1806  -6.1773
     3.5395   4.0593   5.1475   5.9349   5.9791   6.0981   6.5324   6.5367

     occupation numbers 
     1.0000   1.0000   1.0000   1.0000   1.0000   1.0000   1.0000   1.0000
     0.0000   0.0000   0.0000   0.0000   0.0000   0.0000   0.0000   0.0000

          k =-0.1667 0.0962 0.0000     band energies (ev):

   -21.1317 -20.9975  -8.7417  -8.0208  -7.9902  -7.8330  -6.9316  -6.9262
     4.1830   4.7186   5.6016   5.9814   6.0176   6.7369   6.8853   7.2437

     occupation numbers 
     1.0000   1.0000   1.0000   1.0000   1.0000   1.0000   1.0000   1.0000
     0.0000   0.0000   0.0000   0.0000   0.0000   0.0000   0.0000   0.0000

          k = 0.1667 0.0962 0.0000     band energies (ev):

   -21.1317 -20.9975  -8.7414  -8.0208  -7.9902  -7.8330  -6.9316  -6.9262
     4.1847   4.7203   5.7095   5.9835   6.0382   6.7710   7.0959   7.2534

     occupation numbers 
     1.0000   1.0000   1.0000   1.0000   1.0000   1.0000   1.0000   1.0000
     0.0000   0.0000   0.0000   0.0000   0.0000   0.0000   0.0000   0.0000

          k =-0.2500 0.1443 0.0000     band energies (ev):

   -20.3391 -20.2119 -10.0242  -9.9777  -7.7972  -7.7737  -7.7671  -6.9277
     5.1772   5.2315   5.5086   5.7467   5.8613   5.9278   6.8018   7.8478

     occupation numbers 
     1.0000   1.0000   1.0000   1.0000   1.0000   1.0000   1.0000   1.0000
     0.0000   0.0000   0.0000   0.0000   0.0000   0.0000   0.0000   0.0000

          k = 0.2500 0.1443 0.0000     band energies (ev):

   -20.3391 -20.2119 -10.0242  -9.9777  -7.7972  -7.7738  -7.7671  -6.9277
     5.1776   5.2260   5.5085   5.7486   5.8614   5.9365   6.7677   7.8638

     occupation numbers 
     1.0000   1.0000   1.0000   1.0000   1.0000   1.0000   1.0000   1.0000
     0.0000   0.0000   0.0000   0.0000   0.0000   0.0000   0.0000   0.0000

          k =-0.3333 0.1925 0.0000     band energies (ev):

   -19.2460 -19.1285 -12.1448 -12.0826  -8.4817  -8.4747  -6.5302  -5.7367
     2.9510   3.3873   5.5104   5.5637   6.8075   7.4178   8.2899   9.2819

     occupation numbers 
     1.0000   1.0000   1.0000   1.0000   1.0000   1.0000   1.0000   1.0000
     0.0000   0.0000   0.0000   0.0000   0.0000   0.0000   0.0000   0.0000

          k = 0.3333 0.1925 0.0000     band energies (ev):

   -19.2459 -19.1285 -12.1448 -12.0826  -8.4818  -8.4747  -6.5302  -5.7367
     2.9506   3.3873   5.5104   5.5637   6.8074   7.3800   8.3347   9.3511

     occupation numbers 
     1.0000   1.0000   1.0000   1.0000   1.0000   1.0000   1.0000   1.0000
     0.0000   0.0000   0.0000   0.0000   0.0000   0.0000   0.0000   0.0000

          k =-0.4167 0.2406 0.0000     band energies (ev):

   -17.8841 -17.7805 -14.1749 -14.0996  -8.9398  -8.9323  -5.0816  -4.4651
     0.9196   1.3736   5.3225   5.3752   8.6773   9.3211  10.4011  11.1829

     occupation numbers 
     1.0000   1.0000   1.0000   1.0000   1.0000   1.0000   1.0000   1.0000
     0.0000   0.0000   0.0000   0.0000   0.0000   0.0000   0.0000   0.0000

          k = 0.4167 0.2406 0.0000     band energies (ev):

   -17.8841 -17.7805 -14.1749 -14.0996  -8.9398  -8.9324  -5.0816  -4.4651
     0.9198   1.3733   5.3225   5.3752   8.6771   9.3151  10.3887  11.1826

     occupation numbers 
     1.0000   1.0000   1.0000   1.0000   1.0000   1.0000   1.0000   1.0000
     0.0000   0.0000   0.0000   0.0000   0.0000   0.0000   0.0000   0.0000

          k = 0.5000-0.2887 0.0000     band energies (ev):

   -16.6339 -16.6035 -15.5934 -15.5687  -9.0972  -9.0896  -4.0949  -3.8973
     0.0154   0.2533   5.2560   5.3092  10.8155  10.8668  11.5256  11.5770

     occupation numbers 
     1.0000   1.0000   1.0000   1.0000   1.0000   1.0000   1.0000   1.0000
     0.0000   0.0000   0.0000   0.0000   0.0000   0.0000   0.0000   0.0000

          k =-0.5000-0.2887 0.0000     band energies (ev):

   -16.6339 -16.6035 -15.5934 -15.5686  -9.0972  -9.0896  -4.0949  -3.8973
     0.0155   0.2534   5.2567   5.3098  10.8304  10.8790  11.5406  12.5215

     occupation numbers 
     1.0000   1.0000   1.0000   1.0000   1.0000   1.0000   1.0000   1.0000
     0.0000   0.0000   0.0000   0.0000   0.0000   0.0000   0.0000   0.0000

          k =-0.0833 0.1443 0.0000     band energies (ev):

   -21.2913 -21.1557  -8.9342  -8.0172  -7.4450  -7.4368  -6.8139  -6.8073
     3.9695   4.5014   5.3638   6.2467   6.2626   6.5584   6.6627   7.3980

     occupation numbers 
     1.0000   1.0000   1.0000   1.0000   1.0000   1.0000   1.0000   1.0000
     0.0000   0.0000   0.0000   0.0000   0.0000   0.0000   0.0000   0.0000

          k = 0.1667-0.0000 0.0000     band energies (ev):

   -21.2913 -21.1557  -8.9332  -8.0181  -7.4545  -7.4254  -6.8159  -6.8074
     3.9714   4.5256   5.4293   6.2378   6.2823   6.6657   7.3952   7.4487

     occupation numbers 
     1.0000   1.0000   1.0000   1.0000   1.0000   1.0000   1.0000   1.0000
     0.0000   0.0000   0.0000   0.0000   0.0000   0.0000   0.0000   0.0000

          k =-0.0833 0.2406 0.0000     band energies (ev):

   -20.6553 -20.5251  -9.0762  -9.0483  -8.1724  -7.7637  -7.7454  -7.2818
     4.8369   5.3810   6.0689   6.1850   6.4882   6.4997   6.9892   7.4098

     occupation numbers 
     1.0000   1.0000   1.0000   1.0000   1.0000   1.0000   1.0000   1.0000
     0.0000   0.0000   0.0000   0.0000   0.0000   0.0000   0.0000   0.0000

          k =-0.1667 0.1925 0.0000     band energies (ev):

   -20.6552 -20.5252  -9.0759  -9.0477  -8.1713  -7.7603  -7.7496  -7.2835
     4.8304   5.3731   6.0610   6.1995   6.3277   6.5118   6.5686   7.4190

     occupation numbers 
     1.0000   1.0000   1.0000   1.0000   1.0000   1.0000   1.0000   1.0000
     0.0000   0.0000   0.0000   0.0000   0.0000   0.0000   0.0000   0.0000

          k = 0.2500 0.0481 0.0000     band energies (ev):

   -20.6551 -20.5252  -9.0818  -9.0409  -8.1700  -7.7636  -7.7474  -7.2851
     4.8301   5.3742   5.9912   6.2376   6.3145   6.4750   6.5544   7.4209

     occupation numbers 
     1.0000   1.0000   1.0000   1.0000   1.0000   1.0000   1.0000   1.0000
     0.0000   0.0000   0.0000   0.0000   0.0000   0.0000   0.0000   0.0000

          k =-0.1667-0.1925 0.0000     band energies (ev):

   -20.6552 -20.5252  -9.0759  -9.0477  -8.1712  -7.7603  -7.7496  -7.2835
     4.8291   5.3734   6.0607   6.1978   6.3085   6.5106   6.5577   7.4371

     occupation numbers 
     1.0000   1.0000   1.0000   1.0000   1.0000   1.0000   1.0000   1.0000
     0.0000   0.0000   0.0000   0.0000   0.0000   0.0000   0.0000   0.0000

          k = 0.2500-0.0481 0.0000     band energies (ev):

   -20.6551 -20.5252  -9.0818  -9.0409  -8.1697  -7.7636  -7.7473  -7.2851
     4.8315   5.3739   5.9912   6.2974   6.3974   6.4772   6.6483   7.4424

     occupation numbers 
     1.0000   1.0000   1.0000   1.0000   1.0000   1.0000   1.0000   1.0000
     0.0000   0.0000   0.0000   0.0000   0.0000   0.0000   0.0000   0.0000

          k =-0.0833 0.3368 0.0000     band energies (ev):

   -19.7126 -19.5902 -11.0645 -11.0160  -8.6180  -8.5931  -7.0667  -6.2188
     3.9657   4.2553   6.0508   6.2655   6.4848   6.7328   7.6239   8.6730

     occupation numbers 
     1.0000   1.0000   1.0000   1.0000   1.0000   1.0000   1.0000   1.0000
     0.0000   0.0000   0.0000   0.0000   0.0000   0.0000   0.0000   0.0000

          k =-0.2500 0.2406 0.0000     band energies (ev):

   -19.7123 -19.5905 -11.0646 -11.0152  -8.6155  -8.5968  -7.0606  -6.2264
     3.9643   4.2627   6.0322   6.3360   6.4351   6.7351   7.7078   8.7064

     occupation numbers 
     1.0000   1.0000   1.0000   1.0000   1.0000   1.0000   1.0000   1.0000
     0.0000   0.0000   0.0000   0.0000   0.0000   0.0000   0.0000   0.0000

          k = 0.3333 0.0962 0.0000     band energies (ev):

   -19.7121 -19.5906 -11.0674 -11.0122  -8.6166  -8.5961  -7.0584  -6.2287
     3.9030   4.3331   6.0385   6.2987   6.4546   6.7368   7.7803   8.7184

     occupation numbers 
     1.0000   1.0000   1.0000   1.0000   1.0000   1.0000   1.0000   1.0000
     0.0000   0.0000   0.0000   0.0000   0.0000   0.0000   0.0000   0.0000

          k =-0.2500-0.2406 0.0000     band energies (ev):

   -19.7122 -19.5905 -11.0646 -11.0152  -8.6155  -8.5968  -7.0606  -6.2264
     3.9646   4.2628   6.0330   6.3364   6.4353   6.7494   7.6447   8.6763

     occupation numbers 
     1.0000   1.0000   1.0000   1.0000   1.0000   1.0000   1.0000   1.0000
     0.0000   0.0000   0.0000   0.0000   0.0000   0.0000   0.0000   0.0000

          k = 0.3333-0.0962 0.0000     band energies (ev):

   -19.7121 -19.5906 -11.0674 -11.0122  -8.6166  -8.5961  -7.0584  -6.2288
     3.9024   4.3329   6.0380   6.2987   6.4546   6.7344   7.9028   8.7686

     occupation numbers 
     1.0000   1.0000   1.0000   1.0000   1.0000   1.0000   1.0000   1.0000
     0.0000   0.0000   0.0000   0.0000   0.0000   0.0000   0.0000   0.0000

          k =-0.0833 0.4330 0.0000     band energies (ev):

   -18.4829 -18.3704 -13.1120 -13.0463  -9.2336  -9.2057  -5.7018  -4.9175
     1.7783   2.2476   6.0413   6.1759   7.8510   8.4684   9.4199  10.2034

     occupation numbers 
     1.0000   1.0000   1.0000   1.0000   1.0000   1.0000   1.0000   1.0000
     0.0000   0.0000   0.0000   0.0000   0.0000   0.0000   0.0000   0.0000

          k =-0.3333 0.2887 0.0000     band energies (ev):

   -18.4818 -18.3714 -13.1121 -13.0456  -9.2312  -9.2092  -5.6765  -4.9500
     1.8204   2.2192   6.0743   6.1440   7.8540   8.4689   9.4133  10.2069

     occupation numbers 
     1.0000   1.0000   1.0000   1.0000   1.0000   1.0000   1.0000   1.0000
     0.0000   0.0000   0.0000   0.0000   0.0000   0.0000   0.0000   0.0000

          k = 0.4167 0.1443 0.0000     band energies (ev):

   -18.4816 -18.3715 -13.1137 -13.0441  -9.2316  -9.2089  -5.6739  -4.9524
     1.7719   2.2724   6.0745   6.1383   7.8526   8.4415   9.5464  10.4819

     occupation numbers 
     1.0000   1.0000   1.0000   1.0000   1.0000   1.0000   1.0000   1.0000
     0.0000   0.0000   0.0000   0.0000   0.0000   0.0000   0.0000   0.0000

          k =-0.3333-0.2887 0.0000     band energies (ev):

   -18.4818 -18.3714 -13.1121 -13.0457  -9.2312  -9.2092  -5.6765  -4.9500
     1.8206   2.2195   6.0742   6.1439   7.8532   8.4572   9.5208  10.3314

     occupation numbers 
     1.0000   1.0000   1.0000   1.0000   1.0000   1.0000   1.0000   1.0000
     0.0000   0.0000   0.0000   0.0000   0.0000   0.0000   0.0000   0.0000

          k = 0.4167-0.1443 0.0000     band energies (ev):

   -18.4816 -18.3715 -13.1137 -13.0441  -9.2316  -9.2089  -5.6739  -4.9524
     1.7718   2.2719   6.0745   6.1382   7.8506   8.4511   9.4385  10.2479

     occupation numbers 
     1.0000   1.0000   1.0000   1.0000   1.0000   1.0000   1.0000   1.0000
     0.0000   0.0000   0.0000   0.0000   0.0000   0.0000   0.0000   0.0000

          k =-0.0833 0.5292 0.0000     band energies (ev):

   -17.0461 -16.9431 -14.9883 -14.9095  -9.5528  -9.5237  -4.4122  -3.7099
     0.0324   0.6479   5.8958   6.0552   9.8829  10.5380  11.3313  11.9374

     occupation numbers 
     1.0000   1.0000   1.0000   1.0000   1.0000   1.0000   1.0000   1.0000
     0.0000   0.0000   0.0000   0.0000   0.0000   0.0000   0.0000   0.0000

          k =-0.4167 0.3368 0.0000     band energies (ev):

   -17.0389 -16.9505 -14.9846 -14.9124  -9.5504  -9.5271  -4.2894  -3.8721
     0.2069   0.5209   5.9396   6.0097   9.8766  10.5192  11.3124  11.9313

     occupation numbers 
     1.0000   1.0000   1.0000   1.0000   1.0000   1.0000   1.0000   1.0000
     0.0000   0.0000   0.0000   0.0000   0.0000   0.0000   0.0000   0.0000

          k = 0.5000 0.1925 0.0000     band energies (ev):

   -17.0387 -16.9506 -14.9859 -14.9113  -9.5506  -9.5270  -4.2881  -3.8723
     0.1699   0.5584   5.9389   6.0089   9.8821  10.4835  11.4627  11.9247

     occupation numbers 
     1.0000   1.0000   1.0000   1.0000   1.0000   1.0000   1.0000   1.0000
     0.0000   0.0000   0.0000   0.0000   0.0000   0.0000   0.0000   0.0000

          k =-0.4167-0.3368 0.0000     band energies (ev):

   -17.0389 -16.9505 -14.9846 -14.9124  -9.5504  -9.5271  -4.2894  -3.8721
     0.2068   0.5211   5.9397   6.0097   9.8865  10.5190  11.3227  11.9287

     occupation numbers 
     1.0000   1.0000   1.0000   1.0000   1.0000   1.0000   1.0000   1.0000
     0.0000   0.0000   0.0000   0.0000   0.0000   0.0000   0.0000   0.0000

          k = 0.5000-0.1925 0.0000     band energies (ev):

   -17.0387 -16.9506 -14.9859 -14.9113  -9.5506  -9.5270  -4.2882  -3.8723
     0.1698   0.5584   5.9388   6.0090   9.8748  10.4888  11.3999  11.9165

     occupation numbers 
     1.0000   1.0000   1.0000   1.0000   1.0000   1.0000   1.0000   1.0000
     0.0000   0.0000   0.0000   0.0000   0.0000   0.0000   0.0000   0.0000

          k =-0.1667 0.2887 0.0000     band energies (ev):

   -19.8689 -19.7455 -10.3506 -10.3360  -9.0367  -9.0276  -7.2414  -6.3905
     4.4454   4.5683   5.9056   6.4877   7.3659   7.6681   7.7274   8.4744

     occupation numbers 
     1.0000   1.0000   1.0000   1.0000   1.0000   1.0000   1.0000   1.0000
     0.0000   0.0000   0.0000   0.0000   0.0000   0.0000   0.0000   0.0000

          k = 0.3333-0.0000 0.0000     band energies (ev):

   -19.8686 -19.7457 -10.3675 -10.3175  -9.0480  -9.0181  -7.2370  -6.3958
     4.3046   4.7245   5.9047   6.4751   7.3575   7.6224   7.7502   8.4820

     occupation numbers 
     1.0000   1.0000   1.0000   1.0000   1.0000   1.0000   1.0000   1.0000
     0.0000   0.0000   0.0000   0.0000   0.0000   0.0000   0.0000   0.0000

          k =-0.1667 0.3849 0.0000     band energies (ev):

   -18.7875 -18.6732 -12.0182 -11.9751 -10.0580 -10.0281  -5.9998  -5.2037
     2.5381   2.7532   7.4037   7.8079   8.0788   8.0951  10.3923  10.5973

     occupation numbers 
     1.0000   1.0000   1.0000   1.0000   1.0000   1.0000   1.0000   1.0000
     0.0000   0.0000   0.0000   0.0000   0.0000   0.0000   0.0000   0.0000

          k =-0.2500 0.3368 0.0000     band energies (ev):

   -18.7873 -18.6735 -12.0180 -11.9747 -10.0569 -10.0300  -5.9927  -5.2128
     2.5381   2.7581   7.3631   7.9182   7.9681   8.1026   9.2838  10.4996

     occupation numbers 
     1.0000   1.0000   1.0000   1.0000   1.0000   1.0000   1.0000   1.0000
     0.0000   0.0000   0.0000   0.0000   0.0000   0.0000   0.0000   0.0000

          k = 0.4167 0.0481 0.0000     band energies (ev):

   -18.7868 -18.6738 -12.0271 -11.9651 -10.0628 -10.0249  -5.9859  -5.2201
     2.4050   2.9046   7.3698   7.8043   8.0389   8.0924   9.2855  10.5295

     occupation numbers 
     1.0000   1.0000   1.0000   1.0000   1.0000   1.0000   1.0000   1.0000
     0.0000   0.0000   0.0000   0.0000   0.0000   0.0000   0.0000   0.0000

          k =-0.2500-0.3368 0.0000     band energies (ev):

   -18.7873 -18.6735 -12.0180 -11.9747 -10.0570 -10.0301  -5.9927  -5.2128
     2.5377   2.7577   7.3604   7.9057   7.9657   8.0887   9.2617  10.4713

     occupation numbers 
     1.0000   1.0000   1.0000   1.0000   1.0000   1.0000   1.0000   1.0000
     0.0000   0.0000   0.0000   0.0000   0.0000   0.0000   0.0000   0.0000

          k = 0.4167-0.0481 0.0000     band energies (ev):

   -18.7868 -18.6738 -12.0271 -11.9651 -10.0628 -10.0250  -5.9860  -5.2201
     2.4046   2.9040   7.3626   7.8075   8.0381   8.0994   9.2780  10.5107

     occupation numbers 
     1.0000   1.0000   1.0000   1.0000   1.0000   1.0000   1.0000   1.0000
     0.0000   0.0000   0.0000   0.0000   0.0000   0.0000   0.0000   0.0000

          k =-0.1667 0.4811 0.0000     band energies (ev):

   -17.4481 -17.3442 -13.8622 -13.7960 -10.6224 -10.5826  -4.5906  -3.8666
     0.6370   1.0090   7.6819   7.8723   9.2963   9.8084  11.8572  12.5594

     occupation numbers 
     1.0000   1.0000   1.0000   1.0000   1.0000   1.0000   1.0000   1.0000
     0.0000   0.0000   0.0000   0.0000   0.0000   0.0000   0.0000   0.0000

          k =-0.3333 0.3849 0.0000     band energies (ev):

   -17.4462 -17.3461 -13.8617 -13.7961 -10.6219 -10.5841  -4.5455  -3.9267
     0.6847   0.9826   7.7109   7.8504   9.2720   9.8304  10.3725  11.8180

     occupation numbers 
     1.0000   1.0000   1.0000   1.0000   1.0000   1.0000   1.0000   1.0000
     0.0000   0.0000   0.0000   0.0000   0.0000   0.0000   0.0000   0.0000

          k = 0.5000 0.0962 0.0000     band energies (ev):

   -17.4456 -17.3466 -13.8659 -13.7919 -10.6236 -10.5826  -4.5385  -3.9323
     0.5758   1.0977   7.7080   7.8368   9.2815   9.7406  10.6493  11.8952

     occupation numbers 
     1.0000   1.0000   1.0000   1.0000   1.0000   1.0000   1.0000   1.0000
     0.0000   0.0000   0.0000   0.0000   0.0000   0.0000   0.0000   0.0000

          k =-0.3333-0.3849 0.0000     band energies (ev):

   -17.4462 -17.3461 -13.8617 -13.7961 -10.6219 -10.5841  -4.5455  -3.9267
     0.6852   0.9825   7.7108   7.8503   9.2760   9.8144  10.3908  11.8623

     occupation numbers 
     1.0000   1.0000   1.0000   1.0000   1.0000   1.0000   1.0000   1.0000
     0.0000   0.0000   0.0000   0.0000   0.0000   0.0000   0.0000   0.0000

          k = 0.5000-0.0962 0.0000     band energies (ev):

   -17.4456 -17.3466 -13.8659 -13.7919 -10.6236 -10.5827  -4.5385  -3.9324
     0.5755   1.0977   7.7080   7.8368   9.2706   9.7579  10.6196  11.8391

     occupation numbers 
     1.0000   1.0000   1.0000   1.0000   1.0000   1.0000   1.0000   1.0000
     0.0000   0.0000   0.0000   0.0000   0.0000   0.0000   0.0000   0.0000

          k =-0.4167 0.4330 0.0000     band energies (ev):

   -16.2265 -16.1974 -15.2131 -15.1885 -10.8036 -10.7625  -3.5087  -3.3151
    -0.2704  -0.0298   7.6375   7.7777  10.5640  10.9227  11.3788  11.5559

     occupation numbers 
     1.0000   1.0000   1.0000   1.0000   1.0000   1.0000   0.7509   0.0000
     0.0000   0.0000   0.0000   0.0000   0.0000   0.0000   0.0000   0.0000

          k = 0.5833 0.1443 0.0000     band energies (ev):

   -16.2265 -16.1974 -15.2131 -15.1885 -10.8036 -10.7625  -3.5087  -3.3152
    -0.2704  -0.0298   7.6374   7.7777  10.5766  10.9237  11.3955  11.5311

     occupation numbers 
     1.0000   1.0000   1.0000   1.0000   1.0000   1.0000   0.7491   0.0000
     0.0000   0.0000   0.0000   0.0000   0.0000   0.0000   0.0000   0.0000

          k =-0.2500 0.4330 0.0000     band energies (ev):

   -17.5909 -17.4874 -13.0142 -12.9937 -11.4523 -11.4376  -4.6596  -3.9526
     0.9930   1.1557   9.0238   9.4572   9.9660  10.0277  10.3457  10.3963

     occupation numbers 
     1.0000   1.0000   1.0000   1.0000   1.0000   1.0000   1.0000   1.0000
     0.0000   0.0000   0.0000   0.0000   0.0000   0.0000   0.0000   0.0000

          k = 0.5000 0.0000 0.0000     band energies (ev):

   -17.5895 -17.4884 -13.0382 -12.9682 -11.4704 -11.4211  -4.6389  -3.9755
     0.8048   1.3619   9.0061   9.3033   9.9567  10.2059  10.2198  10.4810

     occupation numbers 
     1.0000   1.0000   1.0000   1.0000   1.0000   1.0000   1.0000   1.0000
     0.0000   0.0000   0.0000   0.0000   0.0000   0.0000   0.0000   0.0000

          k =-0.2500 0.5292 0.0000     band energies (ev):

   -16.2125 -16.1191 -14.3913 -14.3379 -12.1472 -12.1075  -3.2998  -2.6495
    -0.5003  -0.2866   9.5868   9.7542  10.2902  10.6457  10.7915  11.7199

     occupation numbers 
     1.0000   1.0000   1.0000   1.0000   1.0000   1.0000   0.0000   0.0000
     0.0000   0.0000   0.0000   0.0000   0.0000   0.0000   0.0000   0.0000

          k =-0.3333 0.4811 0.0000     band energies (ev):

   -16.2074 -16.1245 -14.3890 -14.3395 -12.1484 -12.1069  -3.2210  -2.7618
    -0.4646  -0.2815   9.5753   9.9177  10.0745  10.4637  10.9717  11.6490

     occupation numbers 
     1.0000   1.0000   1.0000   1.0000   1.0000   1.0000   0.0000   0.0000
     0.0000   0.0000   0.0000   0.0000   0.0000   0.0000   0.0000   0.0000

          k = 0.5833 0.0481 0.0000     band energies (ev):

   -16.2058 -16.1258 -14.4020 -14.3264 -12.1537 -12.1021  -3.2044  -2.7691
    -0.6430  -0.1058   9.5252   9.9033  10.1092  10.5438  10.9952  11.6455

     occupation numbers 
     1.0000   1.0000   1.0000   1.0000   1.0000   1.0000   0.0000   0.0000
     0.0000   0.0000   0.0000   0.0000   0.0000   0.0000   0.0000   0.0000

          k =-0.3333-0.4811 0.0000     band energies (ev):

   -16.2074 -16.1245 -14.3890 -14.3395 -12.1485 -12.1069  -3.2210  -2.7618
    -0.4646  -0.2815   9.5811   9.9228  10.0743  10.4658  10.9783  11.6538

     occupation numbers 
     1.0000   1.0000   1.0000   1.0000   1.0000   1.0000   0.0000   0.0000
     0.0000   0.0000   0.0000   0.0000   0.0000   0.0000   0.0000   0.0000

          k = 0.5833-0.0481 0.0000     band energies (ev):

   -16.2058 -16.1259 -14.4020 -14.3263 -12.1538 -12.1022  -3.2044  -2.7691
    -0.6430  -0.1057   9.5111   9.9081  10.1029  10.5562  11.0290  11.6457

     occupation numbers 
     1.0000   1.0000   1.0000   1.0000   1.0000   1.0000   0.0000   0.0000
     0.0000   0.0000   0.0000   0.0000   0.0000   0.0000   0.0000   0.0000

 ------ SPIN DOWN ----------


          k = 0.0000 0.0000 0.0000     band energies (ev):

   -25.4339 -25.3182 -12.7041 -11.9187  -9.8718  -9.8702  -9.8645  -9.8598
     2.0857   2.0894   2.0971   2.1124   2.1195   3.1501   4.5395   5.4371

     occupation numbers 
     1.0000   1.0000   1.0000   1.0000   1.0000   1.0000   1.0000   1.0000
     0.0000   0.0000   0.0000   0.0000   0.0000   0.0000   0.0000   0.0000

          k = 0.0000 0.0962 0.0000     band energies (ev):

   -25.2759 -25.1615 -12.5129 -11.7339 -10.4562 -10.4456 -10.1775 -10.1647
     2.2069   2.2142   2.6966   2.7365   2.7671   3.3770   4.9577   4.9670

     occupation numbers 
     1.0000   1.0000   1.0000   1.0000   1.0000   1.0000   1.0000   1.0000
     0.0000   0.0000   0.0000   0.0000   0.0000   0.0000   0.0000   0.0000

          k = 0.0000 0.1925 0.0000     band energies (ev):

   -24.8044 -24.6934 -11.9606 -11.9418 -11.9315 -11.1861 -10.9053 -10.8910
     2.2490   2.2758   3.0129   3.5879   3.6552   4.0378   4.4724   4.5001

     occupation numbers 
     1.0000   1.0000   1.0000   1.0000   1.0000   1.0000   1.0000   1.0000
     0.0000   0.0000   0.0000   0.0000   0.0000   0.0000   0.0000   0.0000

          k = 0.0000 0.2887 0.0000     band energies (ev):

   -24.0255 -23.9201 -13.9032 -13.8675 -11.7279 -11.7120 -11.0303 -10.2978
     1.6369   1.8283   2.1439   2.1824   4.0260   5.1118   6.8821   6.9084

     occupation numbers 
     1.0000   1.0000   1.0000   1.0000   1.0000   1.0000   1.0000   1.0000
     0.0000   0.0000   0.0000   0.0000   0.0000   0.0000   0.0000   0.0000

          k = 0.0000 0.3849 0.0000     band energies (ev):

   -22.9525 -22.8544 -15.9733 -15.9242 -12.4214 -12.4047  -9.8129  -9.1261
    -0.5272  -0.1842   1.9004   1.9915   5.4129   6.5907   9.5539   9.5679

     occupation numbers 
     1.0000   1.0000   1.0000   1.0000   1.0000   1.0000   1.0000   1.0000
     0.0000   0.0000   0.0000   0.0000   0.0000   0.0000   0.0000   0.0000

          k = 0.0000 0.4811 0.0000     band energies (ev):

   -21.6203 -21.5308 -17.9571 -17.8959 -12.8717 -12.8544  -8.4660  -7.8434
    -2.5300  -2.0528   1.7154   1.8337   7.1237   8.3692  10.3557  11.7053

     occupation numbers 
     1.0000   1.0000   1.0000   1.0000   1.0000   1.0000   1.0000   1.0000
     0.0000   0.0000   0.0000   0.0000   0.0000   0.0000   0.0000   0.0000

          k = 0.0000-0.5774 0.0000     band energies (ev):

   -20.4493 -20.3632 -19.3532 -19.2872 -13.0263 -13.0085  -7.6891  -7.1177
    -3.5396  -2.9860   1.6493   1.7737   8.8885   9.0006  10.5529  12.8880

     occupation numbers 
     1.0000   1.0000   1.0000   1.0000   1.0000   1.0000   1.0000   1.0000
     1.0000   0.0000   0.0000   0.0000   0.0000   0.0000   0.0000   0.0000

          k = 0.0833 0.1443 0.0000     band energies (ev):

   -24.9613 -24.8492 -12.1357 -11.4014 -11.3945 -11.3671 -10.7816 -10.7760
     2.4154   2.5464   2.8821   3.6122   3.6480   3.8699   4.0303   4.0823

     occupation numbers 
     1.0000   1.0000   1.0000   1.0000   1.0000   1.0000   1.0000   1.0000
     0.0000   0.0000   0.0000   0.0000   0.0000   0.0000   0.0000   0.0000

          k = 0.0833 0.2406 0.0000     band energies (ev):

   -24.3360 -24.2285 -12.9873 -12.9647 -11.6999 -11.6851 -11.3924 -10.6485
     2.4224   2.5118   2.7724   2.8083   3.6514   4.6823   5.1374   5.1522

     occupation numbers 
     1.0000   1.0000   1.0000   1.0000   1.0000   1.0000   1.0000   1.0000
     0.0000   0.0000   0.0000   0.0000   0.0000   0.0000   0.0000   0.0000

          k = 0.0833 0.3368 0.0000     band energies (ev):

   -23.4099 -23.3089 -14.9236 -14.8843 -12.5347 -12.5144 -10.3175  -9.6115
     0.4236   0.6442   2.6582   2.7289   4.8159   5.9057   7.2354   7.2928

     occupation numbers 
     1.0000   1.0000   1.0000   1.0000   1.0000   1.0000   1.0000   1.0000
     0.0000   0.0000   0.0000   0.0000   0.0000   0.0000   0.0000   0.0000

          k = 0.0833 0.4330 0.0000     band energies (ev):

   -22.2036 -22.1107 -16.9220 -16.8683 -13.1388 -13.1161  -8.9999  -8.3486
    -1.6539  -1.2922   2.4526   2.5607   6.3607   7.5652   9.2237   9.5487

     occupation numbers 
     1.0000   1.0000   1.0000   1.0000   1.0000   1.0000   1.0000   1.0000
     0.0000   0.0000   0.0000   0.0000   0.0000   0.0000   0.0000   0.0000

          k = 0.0833 0.5292 0.0000     band energies (ev):

   -20.8031 -20.7179 -18.7491 -18.6848 -13.4529 -13.4293  -7.7760  -7.1911
    -3.3023  -2.8222   2.3152   2.4458   8.0896   9.2464   9.3417  10.0030

     occupation numbers 
     1.0000   1.0000   1.0000   1.0000   1.0000   1.0000   1.0000   1.0000
     0.0000   0.0000   0.0000   0.0000   0.0000   0.0000   0.0000   0.0000

          k = 0.1667 0.2887 0.0000     band energies (ev):

   -23.5634 -23.4616 -14.2435 -14.2315 -12.9227 -12.9154 -10.4865  -9.7782
     0.8427   0.9431   3.8934   4.0051   4.7380   5.3477   5.3920   5.7435

     occupation numbers 
     1.0000   1.0000   1.0000   1.0000   1.0000   1.0000   1.0000   1.0000
     0.0000   0.0000   0.0000   0.0000   0.0000   0.0000   0.0000   0.0000

          k = 0.1667 0.3849 0.0000     band energies (ev):

   -22.5022 -22.4079 -15.8686 -15.8340 -13.9160 -13.8922  -9.2833  -8.6227
    -0.9906  -0.8215   4.2336   4.3294   5.9676   6.8695   6.9097   7.1429

     occupation numbers 
     1.0000   1.0000   1.0000   1.0000   1.0000   1.0000   1.0000   1.0000
     0.0000   0.0000   0.0000   0.0000   0.0000   0.0000   0.0000   0.0000

          k = 0.1667 0.4811 0.0000     band energies (ev):

   -21.1913 -21.1055 -17.6623 -17.6087 -14.4722 -14.4403  -7.9295  -7.3290
    -2.8011  -2.5124   4.0675   4.2209   7.4740   8.5412   8.6386   9.0579

     occupation numbers 
     1.0000   1.0000   1.0000   1.0000   1.0000   1.0000   1.0000   1.0000
     0.0000   0.0000   0.0000   0.0000   0.0000   0.0000   0.0000   0.0000

          k = 0.1667 0.5774 0.0000     band energies (ev):

   -20.0477 -19.9651 -18.9878 -18.9278 -14.6513 -14.6174  -7.1068  -6.5459
    -3.7899  -3.4344   3.9947   4.1600   8.2397   8.6179   9.8801   9.9268

     occupation numbers 
     1.0000   1.0000   1.0000   1.0000   1.0000   1.0000   1.0000   1.0000
     1.0000   0.0000   0.0000   0.0000   0.0000   0.0000   0.0000   0.0000

          k = 0.2500 0.4330 0.0000     band energies (ev):

   -21.3302 -21.2449 -16.8607 -16.8437 -15.2559 -15.2441  -7.9891  -7.4055
    -2.5150  -2.3806   6.2430   6.3341   6.5979   6.6357   7.5154   8.3077

     occupation numbers 
     1.0000   1.0000   1.0000   1.0000   1.0000   1.0000   1.0000   1.0000
     0.0000   0.0000   0.0000   0.0000   0.0000   0.0000   0.0000   0.0000

          k = 0.2500 0.5292 0.0000     band energies (ev):

   -19.9876 -19.9105 -18.1945 -18.1521 -15.9329 -15.9017  -6.6847  -6.1449
    -3.9575  -3.7880   6.1513   6.3894   7.5264   7.9571   8.4611   8.6730

     occupation numbers 
     1.0000   1.0000   1.0000   1.0000   1.0000   1.0000   1.0000   1.0000
     1.0000   1.0000   0.0000   0.0000   0.0000   0.0000   0.0000   0.0000

          k = 0.3333 0.5774 0.0000     band energies (ev):

   -18.8481 -18.8281 -18.7968 -18.7757 -16.7175 -16.6963  -5.3928  -5.2514
    -5.0226  -4.8662   6.9497   7.4570   7.6722   8.2156   8.2936   8.4722

     occupation numbers 
     1.0000   1.0000   1.0000   1.0000   1.0000   1.0000   1.0000   1.0000
     1.0000   1.0000   0.0000   0.0000   0.0000   0.0000   0.0000   0.0000

          k =-0.0833 0.0481 0.0000     band energies (ev):

   -25.2759 -25.1615 -12.5133 -11.7343 -10.4567 -10.4432 -10.1735 -10.1708
     2.1249   2.2048   2.4131   2.7517   2.7544   3.3711   4.9231   5.0010

     occupation numbers 
     1.0000   1.0000   1.0000   1.0000   1.0000   1.0000   1.0000   1.0000
     0.0000   0.0000   0.0000   0.0000   0.0000   0.0000   0.0000   0.0000

          k = 0.0833 0.0481 0.0000     band energies (ev):

   -25.2759 -25.1615 -12.5133 -11.7343 -10.4566 -10.4433 -10.1735 -10.1708
     2.1289   2.2046   2.4157   2.7516   2.7544   3.3722   4.9231   5.0006

     occupation numbers 
     1.0000   1.0000   1.0000   1.0000   1.0000   1.0000   1.0000   1.0000
     0.0000   0.0000   0.0000   0.0000   0.0000   0.0000   0.0000   0.0000

          k =-0.1667 0.0962 0.0000     band energies (ev):

   -24.8043 -24.6935 -11.9546 -11.9477 -11.9290 -11.1877 -10.9012 -10.8968
     2.2318   2.2923   3.0201   3.5360   3.7002   4.0327   4.4874   4.4894

     occupation numbers 
     1.0000   1.0000   1.0000   1.0000   1.0000   1.0000   1.0000   1.0000
     0.0000   0.0000   0.0000   0.0000   0.0000   0.0000   0.0000   0.0000

          k = 0.1667 0.0962 0.0000     band energies (ev):

   -24.8044 -24.6935 -11.9546 -11.9477 -11.9290 -11.1877 -10.9012 -10.8968
     2.2319   2.2940   3.0226   3.5360   3.7006   4.0337   4.4871   4.4893

     occupation numbers 
     1.0000   1.0000   1.0000   1.0000   1.0000   1.0000   1.0000   1.0000
     0.0000   0.0000   0.0000   0.0000   0.0000   0.0000   0.0000   0.0000

          k =-0.2500 0.1443 0.0000     band energies (ev):

   -24.0252 -23.9202 -13.9038 -13.8658 -11.7234 -11.7180 -11.0261 -10.3027
     1.6104   1.8669   2.1398   2.1762   4.0244   5.1106   6.8944   6.8973

     occupation numbers 
     1.0000   1.0000   1.0000   1.0000   1.0000   1.0000   1.0000   1.0000
     0.0000   0.0000   0.0000   0.0000   0.0000   0.0000   0.0000   0.0000

          k = 0.2500 0.1443 0.0000     band energies (ev):

   -24.0252 -23.9202 -13.9038 -13.8658 -11.7234 -11.7180 -11.0261 -10.3027
     1.6103   1.8671   2.1407   2.1764   4.0317   5.1012   6.8937   6.8977

     occupation numbers 
     1.0000   1.0000   1.0000   1.0000   1.0000   1.0000   1.0000   1.0000
     0.0000   0.0000   0.0000   0.0000   0.0000   0.0000   0.0000   0.0000

          k =-0.3333 0.1925 0.0000     band energies (ev):

   -22.9518 -22.8550 -15.9738 -15.9229 -12.4167 -12.4107  -9.7991  -9.1424
    -0.5262  -0.1773   1.9257   1.9637   5.4101   6.5878   9.5535   9.5648

     occupation numbers 
     1.0000   1.0000   1.0000   1.0000   1.0000   1.0000   1.0000   1.0000
     0.0000   0.0000   0.0000   0.0000   0.0000   0.0000   0.0000   0.0000

          k = 0.3333 0.1925 0.0000     band energies (ev):

   -22.9518 -22.8550 -15.9738 -15.9229 -12.4168 -12.4106  -9.7991  -9.1425
    -0.5263  -0.1775   1.9256   1.9637   5.4138   6.5494   9.5064   9.5593

     occupation numbers 
     1.0000   1.0000   1.0000   1.0000   1.0000   1.0000   1.0000   1.0000
     0.0000   0.0000   0.0000   0.0000   0.0000   0.0000   0.0000   0.0000

          k =-0.4167 0.2406 0.0000     band energies (ev):

   -21.6180 -21.5331 -17.9570 -17.8955 -12.8665 -12.8608  -8.4128  -7.9091
    -2.4638  -2.1032   1.7519   1.7951   7.1143   8.3321   9.2700  10.3410

     occupation numbers 
     1.0000   1.0000   1.0000   1.0000   1.0000   1.0000   1.0000   1.0000
     0.0000   0.0000   0.0000   0.0000   0.0000   0.0000   0.0000   0.0000

          k = 0.4167 0.2406 0.0000     band energies (ev):

   -21.6180 -21.5331 -17.9569 -17.8954 -12.8667 -12.8606  -8.4127  -7.9091
    -2.4636  -2.1025   1.7524   1.7955   7.1170   8.3498  10.3432  11.8157

     occupation numbers 
     1.0000   1.0000   1.0000   1.0000   1.0000   1.0000   1.0000   1.0000
     0.0000   0.0000   0.0000   0.0000   0.0000   0.0000   0.0000   0.0000

          k = 0.5000-0.2887 0.0000     band energies (ev):

   -20.4200 -20.3948 -19.3287 -19.3084 -13.0211 -13.0149  -7.5053  -7.3394
    -3.3384  -3.1450   1.6889   1.7329   8.9133   8.9282  12.8850  12.8907

     occupation numbers 
     1.0000   1.0000   1.0000   1.0000   1.0000   1.0000   1.0000   1.0000
     0.0000   0.0000   0.0000   0.0000   0.0000   0.0000   0.0000   0.0000

          k =-0.5000-0.2887 0.0000     band energies (ev):

   -20.4200 -20.3948 -19.3288 -19.3084 -13.0211 -13.0149  -7.5053  -7.3394
    -3.3384  -3.1449   1.6888   1.7329   8.9109   8.9425  12.8815  12.8883

     occupation numbers 
     1.0000   1.0000   1.0000   1.0000   1.0000   1.0000   1.0000   1.0000
     0.0000   0.0000   0.0000   0.0000   0.0000   0.0000   0.0000   0.0000

          k =-0.0833 0.1443 0.0000     band energies (ev):

   -24.9613 -24.8492 -12.1356 -11.4014 -11.3945 -11.3671 -10.7816 -10.7760
     2.4193   2.5464   2.8846   3.6121   3.6480   3.8415   4.0304   4.0822

     occupation numbers 
     1.0000   1.0000   1.0000   1.0000   1.0000   1.0000   1.0000   1.0000
     0.0000   0.0000   0.0000   0.0000   0.0000   0.0000   0.0000   0.0000

          k = 0.1667-0.0000 0.0000     band energies (ev):

   -24.9612 -24.8492 -12.1348 -11.4086 -11.3844 -11.3688 -10.7832 -10.7766
     2.4232   2.5325   2.8849   3.6109   3.6529   3.8228   3.9697   4.1381

     occupation numbers 
     1.0000   1.0000   1.0000   1.0000   1.0000   1.0000   1.0000   1.0000
     0.0000   0.0000   0.0000   0.0000   0.0000   0.0000   0.0000   0.0000

          k =-0.0833 0.2406 0.0000     band energies (ev):

   -24.3361 -24.2285 -12.9873 -12.9647 -11.6999 -11.6852 -11.3924 -10.6486
     2.4225   2.5117   2.7735   2.8091   3.6544   4.6345   5.1367   5.1507

     occupation numbers 
     1.0000   1.0000   1.0000   1.0000   1.0000   1.0000   1.0000   1.0000
     0.0000   0.0000   0.0000   0.0000   0.0000   0.0000   0.0000   0.0000

          k =-0.1667 0.1925 0.0000     band energies (ev):

   -24.3360 -24.2286 -12.9870 -12.9641 -11.6974 -11.6888 -11.3910 -10.6501
     2.4069   2.5301   2.7521   2.8266   3.6509   4.6715   5.1209   5.1707

     occupation numbers 
     1.0000   1.0000   1.0000   1.0000   1.0000   1.0000   1.0000   1.0000
     0.0000   0.0000   0.0000   0.0000   0.0000   0.0000   0.0000   0.0000

          k = 0.2500 0.0481 0.0000     band energies (ev):

   -24.3358 -24.2286 -12.9919 -12.9583 -11.6999 -11.6872 -11.3896 -10.6516
     2.3497   2.6088   2.7508   2.8073   3.6567   4.6698   5.1317   5.1618

     occupation numbers 
     1.0000   1.0000   1.0000   1.0000   1.0000   1.0000   1.0000   1.0000
     0.0000   0.0000   0.0000   0.0000   0.0000   0.0000   0.0000   0.0000

          k =-0.1667-0.1925 0.0000     band energies (ev):

   -24.3360 -24.2286 -12.9869 -12.9642 -11.6974 -11.6888 -11.3910 -10.6501
     2.4067   2.5303   2.7508   2.8269   3.6453   4.6704   5.1202   5.1717

     occupation numbers 
     1.0000   1.0000   1.0000   1.0000   1.0000   1.0000   1.0000   1.0000
     0.0000   0.0000   0.0000   0.0000   0.0000   0.0000   0.0000   0.0000

          k = 0.2500-0.0481 0.0000     band energies (ev):

   -24.3358 -24.2286 -12.9920 -12.9582 -11.7000 -11.6872 -11.3896 -10.6517
     2.3498   2.6093   2.7497   2.8036   3.6548   4.6610   5.1332   5.1584

     occupation numbers 
     1.0000   1.0000   1.0000   1.0000   1.0000   1.0000   1.0000   1.0000
     0.0000   0.0000   0.0000   0.0000   0.0000   0.0000   0.0000   0.0000

          k =-0.0833 0.3368 0.0000     band energies (ev):

   -23.4099 -23.3089 -14.9237 -14.8842 -12.5347 -12.5143 -10.3175  -9.6115
     0.4234   0.6442   2.6613   2.7288   4.8206   5.9468   7.2322   7.2921

     occupation numbers 
     1.0000   1.0000   1.0000   1.0000   1.0000   1.0000   1.0000   1.0000
     0.0000   0.0000   0.0000   0.0000   0.0000   0.0000   0.0000   0.0000

          k =-0.2500 0.2406 0.0000     band energies (ev):

   -23.4096 -23.3092 -14.9236 -14.8835 -12.5325 -12.5177 -10.3116  -9.6185
     0.4186   0.6528   2.6658   2.7221   4.8204   5.9340   7.2109   7.2993

     occupation numbers 
     1.0000   1.0000   1.0000   1.0000   1.0000   1.0000   1.0000   1.0000
     0.0000   0.0000   0.0000   0.0000   0.0000   0.0000   0.0000   0.0000

          k = 0.3333 0.0962 0.0000     band energies (ev):

   -23.4094 -23.3093 -14.9261 -14.8807 -12.5335 -12.5170 -10.3095  -9.6207
     0.3645   0.7123   2.6695   2.7124   4.8160   5.9345   7.2338   7.2897

     occupation numbers 
     1.0000   1.0000   1.0000   1.0000   1.0000   1.0000   1.0000   1.0000
     0.0000   0.0000   0.0000   0.0000   0.0000   0.0000   0.0000   0.0000

          k =-0.2500-0.2406 0.0000     band energies (ev):

   -23.4095 -23.3092 -14.9236 -14.8835 -12.5325 -12.5177 -10.3115  -9.6185
     0.4186   0.6530   2.6656   2.7220   4.8135   5.9334   7.2118   7.3150

     occupation numbers 
     1.0000   1.0000   1.0000   1.0000   1.0000   1.0000   1.0000   1.0000
     0.0000   0.0000   0.0000   0.0000   0.0000   0.0000   0.0000   0.0000

          k = 0.3333-0.0962 0.0000     band energies (ev):

   -23.4094 -23.3092 -14.9261 -14.8807 -12.5335 -12.5171 -10.3095  -9.6207
     0.3644   0.7128   2.6698   2.7123   4.8176   5.9387   7.2385   7.2922

     occupation numbers 
     1.0000   1.0000   1.0000   1.0000   1.0000   1.0000   1.0000   1.0000
     0.0000   0.0000   0.0000   0.0000   0.0000   0.0000   0.0000   0.0000

          k =-0.0833 0.4330 0.0000     band energies (ev):

   -22.2037 -22.1107 -16.9220 -16.8683 -13.1388 -13.1162  -8.9999  -8.3486
    -1.6540  -1.2921   2.4525   2.5606   6.3600   7.5415   9.2286   9.5424

     occupation numbers 
     1.0000   1.0000   1.0000   1.0000   1.0000   1.0000   1.0000   1.0000
     0.0000   0.0000   0.0000   0.0000   0.0000   0.0000   0.0000   0.0000

          k =-0.3333 0.2887 0.0000     band energies (ev):

   -22.2027 -22.1117 -16.9220 -16.8678 -13.1369 -13.1193  -8.9760  -8.3777
    -1.6254  -1.3115   2.4764   2.5316   6.3614   7.5269   9.2156   9.5442

     occupation numbers 
     1.0000   1.0000   1.0000   1.0000   1.0000   1.0000   1.0000   1.0000
     0.0000   0.0000   0.0000   0.0000   0.0000   0.0000   0.0000   0.0000

          k = 0.4167 0.1443 0.0000     band energies (ev):

   -22.2024 -22.1119 -16.9234 -16.8663 -13.1373 -13.1191  -8.9736  -8.3800
    -1.6693  -1.2646   2.4770   2.5280   6.3572   7.5495   9.2325   9.5576

     occupation numbers 
     1.0000   1.0000   1.0000   1.0000   1.0000   1.0000   1.0000   1.0000
     0.0000   0.0000   0.0000   0.0000   0.0000   0.0000   0.0000   0.0000

          k =-0.3333-0.2887 0.0000     band energies (ev):

   -22.2026 -22.1117 -16.9220 -16.8678 -13.1369 -13.1193  -8.9760  -8.3777
    -1.6253  -1.3113   2.4764   2.5316   6.3540   7.5261   9.2178   9.5928

     occupation numbers 
     1.0000   1.0000   1.0000   1.0000   1.0000   1.0000   1.0000   1.0000
     0.0000   0.0000   0.0000   0.0000   0.0000   0.0000   0.0000   0.0000

          k = 0.4167-0.1443 0.0000     band energies (ev):

   -22.2024 -22.1118 -16.9234 -16.8663 -13.1373 -13.1190  -8.9736  -8.3800
    -1.6696  -1.2649   2.4770   2.5280   6.3565   7.5090   9.2163   9.5309

     occupation numbers 
     1.0000   1.0000   1.0000   1.0000   1.0000   1.0000   1.0000   1.0000
     0.0000   0.0000   0.0000   0.0000   0.0000   0.0000   0.0000   0.0000

          k =-0.0833 0.5292 0.0000     band energies (ev):

   -20.8031 -20.7177 -18.7490 -18.6844 -13.4527 -13.4293  -7.7760  -7.1911
    -3.3023  -2.8223   2.3236   2.4458   8.0888   9.2613   9.3656  10.0010

     occupation numbers 
     1.0000   1.0000   1.0000   1.0000   1.0000   1.0000   1.0000   1.0000
     0.0000   0.0000   0.0000   0.0000   0.0000   0.0000   0.0000   0.0000

          k =-0.4167 0.3368 0.0000     band energies (ev):

   -20.7965 -20.7247 -18.7456 -18.6874 -13.4510 -13.4322  -7.6665  -7.3274
    -3.1693  -2.9232   2.3515   2.4085   8.0751   9.0755   9.6444   9.8679

     occupation numbers 
     1.0000   1.0000   1.0000   1.0000   1.0000   1.0000   1.0000   1.0000
     0.0000   0.0000   0.0000   0.0000   0.0000   0.0000   0.0000   0.0000

          k = 0.5000 0.1925 0.0000     band energies (ev):

   -20.7963 -20.7247 -18.7465 -18.6863 -13.4509 -13.4321  -7.6655  -7.3276
    -3.2030  -2.8895   2.3589   2.4076   8.0882   9.0102   9.7787   9.8889

     occupation numbers 
     1.0000   1.0000   1.0000   1.0000   1.0000   1.0000   1.0000   1.0000
     0.0000   0.0000   0.0000   0.0000   0.0000   0.0000   0.0000   0.0000

          k =-0.4167-0.3368 0.0000     band energies (ev):

   -20.7964 -20.7247 -18.7455 -18.6872 -13.4508 -13.4322  -7.6665  -7.3274
    -3.1694  -2.9232   2.3588   2.4085   8.0758   9.0835   9.6586   9.8802

     occupation numbers 
     1.0000   1.0000   1.0000   1.0000   1.0000   1.0000   1.0000   1.0000
     0.0000   0.0000   0.0000   0.0000   0.0000   0.0000   0.0000   0.0000

          k = 0.5000-0.1925 0.0000     band energies (ev):

   -20.7963 -20.7247 -18.7465 -18.6863 -13.4509 -13.4322  -7.6655  -7.3276
    -3.2030  -2.8894   2.3592   2.4076   8.0882   9.0075   9.7786   9.8865

     occupation numbers 
     1.0000   1.0000   1.0000   1.0000   1.0000   1.0000   1.0000   1.0000
     0.0000   0.0000   0.0000   0.0000   0.0000   0.0000   0.0000   0.0000

          k =-0.1667 0.2887 0.0000     band energies (ev):

   -23.5634 -23.4616 -14.2435 -14.2315 -12.9227 -12.9154 -10.4865  -9.7782
     0.8427   0.9431   3.8920   4.0048   4.7409   5.3480   5.3916   5.7306

     occupation numbers 
     1.0000   1.0000   1.0000   1.0000   1.0000   1.0000   1.0000   1.0000
     0.0000   0.0000   0.0000   0.0000   0.0000   0.0000   0.0000   0.0000

          k = 0.3333-0.0000 0.0000     band energies (ev):

   -23.5631 -23.4618 -14.2574 -14.2160 -12.9319 -12.9081 -10.4819  -9.7832
     0.7265   1.0685   3.8993   3.9764   4.7473   5.3559   5.3884   5.6996

     occupation numbers 
     1.0000   1.0000   1.0000   1.0000   1.0000   1.0000   1.0000   1.0000
     0.0000   0.0000   0.0000   0.0000   0.0000   0.0000   0.0000   0.0000

          k =-0.1667 0.3849 0.0000     band energies (ev):

   -22.5023 -22.4079 -15.8686 -15.8340 -13.9160 -13.8923  -9.2833  -8.6227
    -0.9904  -0.8216   4.2335   4.3298   5.9797   6.8684   6.9107   7.1476

     occupation numbers 
     1.0000   1.0000   1.0000   1.0000   1.0000   1.0000   1.0000   1.0000
     0.0000   0.0000   0.0000   0.0000   0.0000   0.0000   0.0000   0.0000

          k =-0.2500 0.3368 0.0000     band energies (ev):
[...]
     0.0000   0.0000   0.0000   0.0000   0.0000   0.0000   0.0000   0.0000

          k =-0.3333 0.2887 0.0000 (  3041 PWs)   bands (ev):

   -16.6848 -16.5480 -11.1594 -11.0756  -7.0981  -7.0696  -4.6789  -3.8418
     2.9691   3.4543   7.4812   7.7674   7.8168   7.9937   8.7588   9.8682

     occupation numbers 
     1.0000   1.0000   1.0000   1.0000   1.0000   1.0000   1.0000   1.0000
     0.0000   0.0000   0.0000   0.0000   0.0000   0.0000   0.0000   0.0000

          k = 0.4167 0.1443 0.0000 (  3041 PWs)   bands (ev):

   -16.6845 -16.5482 -11.1612 -11.0736  -7.0988  -7.0693  -4.6761  -3.8447
     2.9161   3.5138   7.4918   7.7137   7.8434   7.9961   8.7596   9.8637

     occupation numbers 
     1.0000   1.0000   1.0000   1.0000   1.0000   1.0000   1.0000   1.0000
     0.0000   0.0000   0.0000   0.0000   0.0000   0.0000   0.0000   0.0000

          k =-0.3333-0.2887 0.0000 (  3041 PWs)   bands (ev):

   -16.6848 -16.5480 -11.1594 -11.0756  -7.0981  -7.0696  -4.6789  -3.8418
     2.9691   3.4543   7.4812   7.7674   7.8168   7.9937   8.7588   9.8681

     occupation numbers 
     1.0000   1.0000   1.0000   1.0000   1.0000   1.0000   1.0000   1.0000
     0.0000   0.0000   0.0000   0.0000   0.0000   0.0000   0.0000   0.0000

          k = 0.4167-0.1443 0.0000 (  3041 PWs)   bands (ev):

   -16.6845 -16.5482 -11.1612 -11.0736  -7.0988  -7.0693  -4.6761  -3.8447
     2.9161   3.5138   7.4918   7.7137   7.8434   7.9961   8.7596   9.8637

     occupation numbers 
     1.0000   1.0000   1.0000   1.0000   1.0000   1.0000   1.0000   1.0000
     0.0000   0.0000   0.0000   0.0000   0.0000   0.0000   0.0000   0.0000

          k =-0.0833 0.5292 0.0000 (  3043 PWs)   bands (ev):

   -15.2056 -15.0774 -13.1015 -13.0029  -7.4286  -7.3915  -3.3610  -2.5494
     1.0807   1.8116   7.5070   7.7011   9.6947  10.1182  10.9841  11.8214

     occupation numbers 
     1.0000   1.0000   1.0000   1.0000   1.0000   1.0000   1.0000   1.0000
     0.0000   0.0000   0.0000   0.0000   0.0000   0.0000   0.0000   0.0000

          k =-0.4167 0.3368 0.0000 (  3043 PWs)   bands (ev):

   -15.1973 -15.0868 -13.0966 -13.0055  -7.4260  -7.3958  -3.2260  -2.7379
     1.2886   1.6668   7.5595   7.6466   9.6969  10.1241  10.9797  11.7240

     occupation numbers 
     1.0000   1.0000   1.0000   1.0000   1.0000   1.0000   1.0000   1.0000
     0.0000   0.0000   0.0000   0.0000   0.0000   0.0000   0.0000   0.0000

          k = 0.5000 0.1925 0.0000 (  3043 PWs)   bands (ev):

   -15.1970 -15.0870 -13.0979 -13.0041  -7.4261  -7.3957  -3.2246  -2.7381
     1.2478   1.7084   7.5589   7.6443   9.6968  10.1059  10.9838  11.8298

     occupation numbers 
     1.0000   1.0000   1.0000   1.0000   1.0000   1.0000   1.0000   1.0000
     0.0000   0.0000   0.0000   0.0000   0.0000   0.0000   0.0000   0.0000

          k =-0.4167-0.3368 0.0000 (  3043 PWs)   bands (ev):

   -15.1973 -15.0868 -13.0966 -13.0055  -7.4260  -7.3958  -3.2260  -2.7379
     1.2886   1.6668   7.5595   7.6466   9.6969  10.1241  10.9797  11.7240

     occupation numbers 
     1.0000   1.0000   1.0000   1.0000   1.0000   1.0000   1.0000   1.0000
     0.0000   0.0000   0.0000   0.0000   0.0000   0.0000   0.0000   0.0000

          k = 0.5000-0.1925 0.0000 (  3043 PWs)   bands (ev):

   -15.1970 -15.0870 -13.0979 -13.0041  -7.4261  -7.3957  -3.2246  -2.7381
     1.2478   1.7084   7.5589   7.6443   9.6968  10.1059  10.9838  11.8298

     occupation numbers 
     1.0000   1.0000   1.0000   1.0000   1.0000   1.0000   1.0000   1.0000
     0.0000   0.0000   0.0000   0.0000   0.0000   0.0000   0.0000   0.0000

          k =-0.1667 0.2887 0.0000 (  3039 PWs)   bands (ev):

   -18.1090 -17.9569  -8.2749  -8.2563  -6.9292  -6.9173  -6.2895  -5.3194
     5.5803   5.7626   5.9084   5.9770   6.7215   7.8558   8.2075   9.4500

     occupation numbers 
     1.0000   1.0000   1.0000   1.0000   1.0000   1.0000   1.0000   1.0000
     0.0000   0.0000   0.0000   0.0000   0.0000   0.0000   0.0000   0.0000

          k = 0.3333-0.0000 0.0000 (  3039 PWs)   bands (ev):

   -18.1087 -17.9572  -8.2956  -8.2320  -6.9446  -6.9057  -6.2846  -5.3254
     5.5816   5.5974   5.9687   6.1011   6.7214   7.8520   8.2059   9.3862

     occupation numbers 
     1.0000   1.0000   1.0000   1.0000   1.0000   1.0000   1.0000   1.0000
     0.0000   0.0000   0.0000   0.0000   0.0000   0.0000   0.0000   0.0000

          k =-0.1667 0.3849 0.0000 (  3045 PWs)   bands (ev):

   -16.9989 -16.8574 -10.0127  -9.9575  -7.9937  -7.9549  -5.0156  -4.1029
     3.7670   4.0316   7.1093   7.4965   8.2963   9.3646   9.4987   9.6302

     occupation numbers 
     1.0000   1.0000   1.0000   1.0000   1.0000   1.0000   1.0000   1.0000
     0.0000   0.0000   0.0000   0.0000   0.0000   0.0000   0.0000   0.0000

          k =-0.2500 0.3368 0.0000 (  3045 PWs)   bands (ev):

   -16.9986 -16.8578 -10.0123  -9.9568  -7.9925  -7.9572  -5.0081  -4.1131
     3.7693   4.0371   7.1080   7.5035   8.2961   9.3918   9.4868   9.7523

     occupation numbers 
     1.0000   1.0000   1.0000   1.0000   1.0000   1.0000   1.0000   1.0000
     0.0000   0.0000   0.0000   0.0000   0.0000   0.0000   0.0000   0.0000

          k = 0.4167 0.0481 0.0000 (  3045 PWs)   bands (ev):

   -16.9980 -16.8583 -10.0229  -9.9445  -8.0002  -7.9514  -5.0008  -4.1214
     3.6167   4.2103   7.1095   7.4905   8.2959   9.3522   9.4822   9.6545

     occupation numbers 
     1.0000   1.0000   1.0000   1.0000   1.0000   1.0000   1.0000   1.0000
     0.0000   0.0000   0.0000   0.0000   0.0000   0.0000   0.0000   0.0000

          k =-0.2500-0.3368 0.0000 (  3045 PWs)   bands (ev):

   -16.9986 -16.8578 -10.0123  -9.9568  -7.9925  -7.9572  -5.0081  -4.1131
     3.7693   4.0371   7.1080   7.5035   8.2961   9.3918   9.4869   9.7523

     occupation numbers 
     1.0000   1.0000   1.0000   1.0000   1.0000   1.0000   1.0000   1.0000
     0.0000   0.0000   0.0000   0.0000   0.0000   0.0000   0.0000   0.0000

          k = 0.4167-0.0481 0.0000 (  3045 PWs)   bands (ev):

   -16.9980 -16.8583 -10.0229  -9.9445  -8.0002  -7.9514  -5.0008  -4.1214
     3.6167   4.2103   7.1095   7.4905   8.2959   9.3522   9.4822   9.6545

     occupation numbers 
     1.0000   1.0000   1.0000   1.0000   1.0000   1.0000   1.0000   1.0000
     0.0000   0.0000   0.0000   0.0000   0.0000   0.0000   0.0000   0.0000

          k =-0.1667 0.4811 0.0000 (  3041 PWs)   bands (ev):

   -15.6210 -15.4918 -11.9296 -11.8460  -8.5734  -8.5223  -3.5594  -2.7239
     1.7716   2.2247   9.0230   9.2646   9.4916   9.6074  10.3139  10.9483

     occupation numbers 
     1.0000   1.0000   1.0000   1.0000   1.0000   1.0000   1.0000   1.0000
     0.0000   0.0000   0.0000   0.0000   0.0000   0.0000   0.0000   0.0000

          k =-0.3333 0.3849 0.0000 (  3041 PWs)   bands (ev):

   -15.6188 -15.4942 -11.9286 -11.8457  -8.5729  -8.5242  -3.5107  -2.7923
     1.8326   2.1950   9.0054   9.4030   9.4399   9.5700  10.2952  10.8348

     occupation numbers 
     1.0000   1.0000   1.0000   1.0000   1.0000   1.0000   1.0000   1.0000
     0.0000   0.0000   0.0000   0.0000   0.0000   0.0000   0.0000   0.0000

          k = 0.5000 0.0962 0.0000 (  3041 PWs)   bands (ev):

   -15.6180 -15.4949 -11.9334 -11.8403  -8.5751  -8.5225  -3.5030  -2.7988
     1.7104   2.3268   9.0194   9.2589   9.5024   9.5678  10.3148  11.0444

     occupation numbers 
     1.0000   1.0000   1.0000   1.0000   1.0000   1.0000   1.0000   1.0000
     0.0000   0.0000   0.0000   0.0000   0.0000   0.0000   0.0000   0.0000

          k =-0.3333-0.3849 0.0000 (  3041 PWs)   bands (ev):

   -15.6188 -15.4942 -11.9286 -11.8457  -8.5729  -8.5242  -3.5107  -2.7923
     1.8326   2.1950   9.0054   9.4030   9.4399   9.5700  10.2952  10.8347

     occupation numbers 
     1.0000   1.0000   1.0000   1.0000   1.0000   1.0000   1.0000   1.0000
     0.0000   0.0000   0.0000   0.0000   0.0000   0.0000   0.0000   0.0000

          k = 0.5000-0.0962 0.0000 (  3041 PWs)   bands (ev):

   -15.6180 -15.4949 -11.9334 -11.8403  -8.5751  -8.5225  -3.5030  -2.7988
     1.7104   2.3268   9.0194   9.2589   9.5024   9.5678  10.3148  11.0444

     occupation numbers 
     1.0000   1.0000   1.0000   1.0000   1.0000   1.0000   1.0000   1.0000
     0.0000   0.0000   0.0000   0.0000   0.0000   0.0000   0.0000   0.0000

          k =-0.4167 0.4330 0.0000 (  3008 PWs)   bands (ev):

   -14.3479 -14.3116 -13.3282 -13.2976  -8.7590  -8.7063  -2.4072  -2.1846
     0.8484   1.1251   9.2925   9.4750  10.8965  11.1865  11.3014  11.3532

     occupation numbers 
     1.0000   1.0000   1.0000   1.0000   1.0000   1.0000   1.0000   1.0000
     0.0000   0.0000   0.0000   0.0000   0.0000   0.0000   0.0000   0.0000

          k = 0.5833 0.1443 0.0000 (  3008 PWs)   bands (ev):

   -14.3479 -14.3116 -13.3282 -13.2976  -8.7590  -8.7063  -2.4072  -2.1846
     0.8484   1.1251   9.2925   9.4750  10.8965  11.1865  11.3014  11.3532

     occupation numbers 
     1.0000   1.0000   1.0000   1.0000   1.0000   1.0000   1.0000   1.0000
     0.0000   0.0000   0.0000   0.0000   0.0000   0.0000   0.0000   0.0000

          k =-0.2500 0.4330 0.0000 (  3033 PWs)   bands (ev):

   -15.7680 -15.6393 -11.0298 -11.0039  -9.4589  -9.4402  -3.6354  -2.8191
     2.1969   2.3879   8.8198   9.1383  10.0449  10.4391  11.0216  11.5067

     occupation numbers 
     1.0000   1.0000   1.0000   1.0000   1.0000   1.0000   1.0000   1.0000
     0.0000   0.0000   0.0000   0.0000   0.0000   0.0000   0.0000   0.0000

          k = 0.5000 0.0000 0.0000 (  3033 PWs)   bands (ev):

   -15.7665 -15.6407 -11.0592 -10.9709  -9.4829  -9.4201  -3.6130  -2.8451
     1.9787   2.6338   8.8227   9.0744  10.0571  10.5783  10.8874  11.4932

     occupation numbers 
     1.0000   1.0000   1.0000   1.0000   1.0000   1.0000   1.0000   1.0000
     0.0000   0.0000   0.0000   0.0000   0.0000   0.0000   0.0000   0.0000

          k =-0.2500 0.5292 0.0000 (  3013 PWs)   bands (ev):

   -14.3441 -14.2278 -12.4663 -12.3984 -10.1802 -10.1284  -2.2264  -1.4726
     0.6491   0.9052  10.1300  10.5360  10.8261  11.4732  11.9763  12.2448

     occupation numbers 
     1.0000   1.0000   1.0000   1.0000   1.0000   1.0000   1.0000   1.0000
     0.0000   0.0000   0.0000   0.0000   0.0000   0.0000   0.0000   0.0000

          k =-0.3333 0.4811 0.0000 (  3013 PWs)   bands (ev):

   -14.3383 -14.2344 -12.4630 -12.3996 -10.1818 -10.1280  -2.1399  -1.6041
     0.6974   0.9123  10.0775  10.5817  10.8149  11.4939  11.7711  12.3363

     occupation numbers 
     1.0000   1.0000   1.0000   1.0000   1.0000   1.0000   1.0000   1.0000
     0.0000   0.0000   0.0000   0.0000   0.0000   0.0000   0.0000   0.0000

          k = 0.5833 0.0481 0.0000 (  3013 PWs)   bands (ev):

   -14.3365 -14.2363 -12.4782 -12.3832 -10.1884 -10.1227  -2.1208  -1.6119
     0.4903   1.1182   9.9506  10.7031  10.8813  11.4740  11.9299  12.1136

     occupation numbers 
     1.0000   1.0000   1.0000   1.0000   1.0000   1.0000   1.0000   1.0000
     0.0000   0.0000   0.0000   0.0000   0.0000   0.0000   0.0000   0.0000

          k =-0.3333-0.4811 0.0000 (  3013 PWs)   bands (ev):

   -14.3383 -14.2344 -12.4630 -12.3996 -10.1818 -10.1280  -2.1399  -1.6041
     0.6974   0.9123  10.0775  10.5817  10.8149  11.4939  11.7711  12.3363

     occupation numbers 
     1.0000   1.0000   1.0000   1.0000   1.0000   1.0000   1.0000   1.0000
     0.0000   0.0000   0.0000   0.0000   0.0000   0.0000   0.0000   0.0000

          k = 0.5833-0.0481 0.0000 (  3013 PWs)   bands (ev):

   -14.3365 -14.2363 -12.4782 -12.3832 -10.1884 -10.1227  -2.1208  -1.6119
     0.4903   1.1182   9.9506  10.7031  10.8813  11.4740  11.9300  12.1139

     occupation numbers 
     1.0000   1.0000   1.0000   1.0000   1.0000   1.0000   1.0000   1.0000
     0.0000   0.0000   0.0000   0.0000   0.0000   0.0000   0.0000   0.0000

     the Fermi energy is    -0.5899 ev

!    total energy              =     -45.57767985 Ry
     Harris-Foulkes estimate   =     -45.57767984 Ry
     estimated scf accuracy    <          2.3E-11 Ry

     The total energy is the sum of the following terms:

     one-electron contribution =    -543.44649458 Ry
     hartree contribution      =     275.19482157 Ry
     xc contribution           =     -14.03337239 Ry
     ewald contribution        =     236.70736556 Ry
     smearing contrib. (-TS)   =       0.00000000 Ry

     total magnetization       =    -0.00 Bohr mag/cell
     absolute magnetization    =     0.00 Bohr mag/cell

     convergence has been achieved in  13 iterations

     Forces acting on atoms (Ry/au):

     atom    1 type  1   force =    -0.00022887   -0.00021633   -0.00278989
     atom    2 type  1   force =    -0.00022889    0.00021633   -0.00278988
     atom    3 type  1   force =     0.00022889   -0.00021683    0.00278988
     atom    4 type  1   force =     0.00022886    0.00021683    0.00278989
     The non-local contrib.  to forces
     atom    1 type  1   force =    -0.00013381    0.00023044   -0.00146874
     atom    2 type  1   force =    -0.00013380   -0.00023044   -0.00146873
     atom    3 type  1   force =     0.00012911    0.00022988    0.00144993
     atom    4 type  1   force =     0.00012911   -0.00022986    0.00144995
     The ionic contribution  to forces
     atom    1 type  1   force =    -0.00063253    0.00169176  -14.30915784
     atom    2 type  1   force =    -0.00063253   -0.00169176  -14.30915784
     atom    3 type  1   force =     0.00063253    0.00169176   14.30915784
     atom    4 type  1   force =     0.00063253   -0.00169176   14.30915784
     The local contribution  to forces
     atom    1 type  1   force =     0.00053511   -0.00213853   14.30781880
     atom    2 type  1   force =     0.00053511    0.00213854   14.30781878
     atom    3 type  1   force =    -0.00053514   -0.00213846  -14.30782380
     atom    4 type  1   force =    -0.00053516    0.00213846  -14.30782382
     The core correction contribution to forces
     atom    1 type  1   force =     0.00000000    0.00000000    0.00000000
     atom    2 type  1   force =     0.00000000    0.00000000    0.00000000
     atom    3 type  1   force =     0.00000000    0.00000000    0.00000000
     atom    4 type  1   force =     0.00000000    0.00000000    0.00000000
     The Hubbard contrib.    to forces
     atom    1 type  1   force =     0.00000000    0.00000000    0.00000000
     atom    2 type  1   force =     0.00000000    0.00000000    0.00000000
     atom    3 type  1   force =     0.00000000    0.00000000    0.00000000
     atom    4 type  1   force =     0.00000000    0.00000000    0.00000000
     The SCF correction term to forces
     atom    1 type  1   force =    -0.00000001    0.00000000    0.00000799
     atom    2 type  1   force =    -0.00000003   -0.00000001    0.00000799
     atom    3 type  1   force =     0.00000002   -0.00000000   -0.00000398
     atom    4 type  1   force =     0.00000001    0.00000000   -0.00000398

     Total force =     0.005615     Total SCF correction =     0.000013


     entering subroutine stress ...

          total   stress  (Ry/bohr**3)                   (kbar)     P=   -4.39
  -0.00006246   0.00000000   0.00000406         -9.19      0.00      0.60
   0.00000000  -0.00006980  -0.00000000          0.00    -10.27     -0.00
   0.00000406  -0.00000000   0.00004275          0.60     -0.00      6.29

     kinetic stress (kbar)   3526.33      0.00      0.70
                                0.00   3524.93      0.00
                                0.70      0.00   4089.33

     local   stress (kbar)-116139.62     -0.00     -2.65
                               -0.00-116134.48      0.00
                               -2.65      0.00 118461.50

     nonloc. stress (kbar)   -152.40     -0.00     -0.06
                               -0.00   -152.42      0.00
                               -0.06      0.00   -151.56

     hartree stress (kbar)  56547.21     -0.00      0.96
                               -0.00  56545.08     -0.00
                                0.96     -0.00 -56202.87

     exc-cor stress (kbar)   -891.53     -0.00      0.02
                               -0.00   -891.55     -0.00
                                0.02     -0.00   -924.23

     corecor stress (kbar)      0.00      0.00      0.00
                                0.00      0.00      0.00
                                0.00      0.00      0.00

     ewald   stress (kbar)  57100.84      0.00      1.63
                                0.00  57098.17     -0.00
                                1.63     -0.00 -65265.88

     hubbard stress (kbar)      0.00      0.00      0.00
                                0.00      0.00      0.00
                                0.00      0.00      0.00

     london  stress (kbar)      0.00      0.00      0.00
                                0.00      0.00      0.00
                                0.00      0.00      0.00

     XDM     stress (kbar)      0.00      0.00      0.00
                                0.00      0.00      0.00
                                0.00      0.00      0.00

     dft-nl  stress (kbar)      0.00      0.00      0.00
                                0.00      0.00      0.00
                                0.00      0.00      0.00



     Writing output data file g.dos1.save

     init_run     :      9.10s CPU      9.20s WALL (       1 calls)
     electrons    :    310.18s CPU    311.49s WALL (       1 calls)
     forces       :      4.58s CPU      4.60s WALL (       1 calls)
     stress       :     10.94s CPU     11.02s WALL (       1 calls)

     Called by init_run:
     wfcinit      :      7.20s CPU      7.26s WALL (       1 calls)
     potinit      :      0.82s CPU      0.84s WALL (       1 calls)

     Called by electrons:
     c_bands      :    254.98s CPU    256.02s WALL (      13 calls)
     sum_band     :     40.89s CPU     41.11s WALL (      13 calls)
     v_of_rho     :      9.15s CPU      9.19s WALL (      14 calls)
     v_h          :      0.17s CPU      0.17s WALL (      14 calls)
     v_xc         :      8.99s CPU      9.02s WALL (      14 calls)
     newd         :      4.85s CPU      4.86s WALL (      14 calls)
     mix_rho      :      0.72s CPU      0.72s WALL (      13 calls)

     Called by c_bands:
     init_us_2    :      5.01s CPU      5.04s WALL (    4292 calls)
     cegterg      :    246.75s CPU    247.74s WALL (    1924 calls)

     Called by sum_band:
     sum_band:bec :      0.04s CPU      0.04s WALL (    1924 calls)
     addusdens    :      5.36s CPU      5.36s WALL (      13 calls)

     Called by *egterg:
     h_psi        :    150.31s CPU    151.22s WALL (    7791 calls)
     s_psi        :     21.82s CPU     21.86s WALL (    7791 calls)
     g_psi        :      0.99s CPU      0.99s WALL (    5719 calls)
     cdiaghg      :      6.75s CPU      6.78s WALL (    7643 calls)
     cegterg:over :     28.97s CPU     29.00s WALL (    5719 calls)
     cegterg:upda :     17.85s CPU     17.89s WALL (    5719 calls)
     cegterg:last :     11.82s CPU     11.85s WALL (    1976 calls)

     Called by h_psi:
     h_psi:vloc   :    103.81s CPU    104.58s WALL (    7791 calls)
     h_psi:vnl    :     45.68s CPU     45.82s WALL (    7791 calls)
     add_vuspsi   :     21.91s CPU     21.94s WALL (    7791 calls)

     General routines
     calbec       :     34.32s CPU     34.49s WALL (   10011 calls)
     fft          :      4.43s CPU      4.46s WALL (     437 calls)
     ffts         :      0.04s CPU      0.04s WALL (      54 calls)
     fftw         :     87.28s CPU     87.91s WALL (  184584 calls)
     interpolate  :      0.65s CPU      0.65s WALL (      54 calls)

     Parallel routines
     fft_scatter  :     15.58s CPU     15.70s WALL (  185075 calls)

     PWSCF        :  5m35.56s CPU     5m37.22s WALL


   This run was terminated on:   6:19:54   1May2020            

=------------------------------------------------------------------------------=
   JOB DONE.
=------------------------------------------------------------------------------=
