
     Program PROJWFC v.5.1 starts on 30Apr2020 at 21: 5:15 

     This program is part of the open-source Quantum ESPRESSO suite
     for quantum simulation of materials; please cite
         "P. Giannozzi et al., J. Phys.:Condens. Matter 21 395502 (2009);
          URL http://www.quantum-espresso.org", 
     in publications or presentations arising from this work. More details at
     http://www.quantum-espresso.org/quote

     Parallel version (MPI), running on     1 processors

   Info: using nr1, nr2, nr3 values from input

   Info: using nr1s, nr2s, nr3s values from input

     IMPORTANT: XC functional enforced from input :
     Exchange-correlation      = PBE ( 1  4  3  4 0)
     Any further DFT definition will be discarded
     Please, verify this is what you really want

               file C.pbe-rrkjus.UPF: wavefunction(s)  2S 2P renormalized

     G-vector sticks info
     --------------------
     sticks:   dense  smooth     PW     G-vecs:    dense   smooth      PW
     Sum         595     241     85                96043    24369    4587

     Generating pointlists ...
     new r_m :   0.2381 (alat units)  1.1104 (a.u.) for type    1

     negative rho (up, down):  8.183E-07 8.172E-07

     Gaussian broadening (read from input): ngauss,degauss=   0    0.010000


     Calling projwave .... 

     Atomic states used for projection
     (read from pseudopotential files):

     state #   1: atom   1 (C  ), wfc  1 (l=0 m= 1)
     state #   2: atom   1 (C  ), wfc  2 (l=1 m= 1)
     state #   3: atom   1 (C  ), wfc  2 (l=1 m= 2)
     state #   4: atom   1 (C  ), wfc  2 (l=1 m= 3)
     state #   5: atom   2 (C  ), wfc  1 (l=0 m= 1)
     state #   6: atom   2 (C  ), wfc  2 (l=1 m= 1)
     state #   7: atom   2 (C  ), wfc  2 (l=1 m= 2)
     state #   8: atom   2 (C  ), wfc  2 (l=1 m= 3)
     state #   9: atom   3 (C  ), wfc  1 (l=0 m= 1)
     state #  10: atom   3 (C  ), wfc  2 (l=1 m= 1)
     state #  11: atom   3 (C  ), wfc  2 (l=1 m= 2)
     state #  12: atom   3 (C  ), wfc  2 (l=1 m= 3)
     state #  13: atom   4 (C  ), wfc  1 (l=0 m= 1)
     state #  14: atom   4 (C  ), wfc  2 (l=1 m= 1)
     state #  15: atom   4 (C  ), wfc  2 (l=1 m= 2)
     state #  16: atom   4 (C  ), wfc  2 (l=1 m= 3)

 k =   0.0000000000  0.0000000000  0.0000000000
==== e(   1) =   -20.08013 eV ==== 
     psi = 0.244*[#   5]+0.244*[#   1]+0.244*[#  13]+0.244*[#   9]+
    |psi|^2 = 0.979
==== e(   2) =   -19.87859 eV ==== 
     psi = 0.246*[#   9]+0.246*[#  13]+0.246*[#   1]+0.246*[#   5]+
    |psi|^2 = 0.987
==== e(   3) =    -8.67005 eV ==== 
     psi = 0.238*[#   6]+0.238*[#  14]+0.237*[#   2]+0.237*[#  10]+
    |psi|^2 = 0.953
==== e(   4) =    -7.49945 eV ==== 
     psi = 0.241*[#   2]+0.241*[#  10]+0.240*[#   6]+0.240*[#  14]+0.001*[#   1]+
          +0.001*[#   5]+0.001*[#   9]+0.001*[#  13]+
    |psi|^2 = 0.965
==== e(   5) =    -3.57856 eV ==== 
     psi = 0.250*[#   8]+0.250*[#  16]+0.249*[#   4]+0.248*[#  12]+
    |psi|^2 = 0.997
==== e(   6) =    -3.57694 eV ==== 
     psi = 0.250*[#   7]+0.250*[#  15]+0.249*[#   3]+0.248*[#  11]+
    |psi|^2 = 0.997
==== e(   7) =    -3.56510 eV ==== 
     psi = 0.250*[#  12]+0.250*[#   4]+0.249*[#  16]+0.249*[#   8]+
    |psi|^2 = 0.997
==== e(   8) =    -3.56348 eV ==== 
     psi = 0.250*[#  11]+0.250*[#   3]+0.249*[#  15]+0.249*[#   7]+
    |psi|^2 = 0.997
==== e(   9) =     2.94903 eV ==== 
     psi = 0.002*[#   1]+0.002*[#   5]+0.002*[#   9]+0.002*[#  13]+0.002*[#   2]+
          +0.002*[#   6]+0.002*[#  10]+0.002*[#  14]+
    |psi|^2 = 0.014
==== e(  10) =     3.31477 eV ==== 
     psi = 0.005*[#   6]+0.005*[#  14]+0.005*[#   2]+0.005*[#  10]+
    |psi|^2 = 0.021
==== e(  11) =     4.03407 eV ==== 
     psi = 
    |psi|^2 = 0.002
==== e(  12) =     5.17925 eV ==== 
     psi = 0.002*[#   6]+0.002*[#  14]+0.002*[#   2]+0.002*[#  10]+
    |psi|^2 = 0.008
==== e(  13) =     5.75332 eV ==== 
     psi = 0.001*[#   1]+0.001*[#   5]+0.001*[#   9]+0.001*[#  13]+
    |psi|^2 = 0.008
==== e(  14) =     7.70627 eV ==== 
     psi = 0.005*[#   2]+0.005*[#  10]+0.005*[#   6]+0.005*[#  14]+
    |psi|^2 = 0.022
==== e(  15) =     7.74308 eV ==== 
     psi = 0.238*[#   7]+0.238*[#  15]+0.238*[#   3]+0.237*[#  11]+
    |psi|^2 = 0.952
==== e(  16) =     7.74517 eV ==== 
     psi = 0.238*[#   8]+0.238*[#  16]+0.238*[#   4]+0.237*[#  12]+
    |psi|^2 = 0.952

 k =   0.0000000000  0.0240562612  0.0000000000
==== e(   1) =   -20.06984 eV ==== 
     psi = 0.243*[#   5]+0.243*[#   1]+0.243*[#  13]+0.243*[#   9]+
    |psi|^2 = 0.979
==== e(   2) =   -19.86842 eV ==== 
     psi = 0.245*[#   9]+0.245*[#  13]+0.245*[#   1]+0.245*[#   5]+
    |psi|^2 = 0.987
==== e(   3) =    -8.65764 eV ==== 
     psi = 0.238*[#   6]+0.238*[#  14]+0.237*[#   2]+0.237*[#  10]+
    |psi|^2 = 0.953
==== e(   4) =    -7.48749 eV ==== 
     psi = 0.241*[#   2]+0.241*[#  10]+0.240*[#   6]+0.240*[#  14]+0.001*[#   1]+
          +0.001*[#   5]+0.001*[#   9]+0.001*[#  13]+
    |psi|^2 = 0.965
==== e(   5) =    -3.62142 eV ==== 
     psi = 0.250*[#   8]+0.249*[#  16]+0.248*[#   4]+0.248*[#  12]+
    |psi|^2 = 0.997
==== e(   6) =    -3.60712 eV ==== 
     psi = 0.249*[#  12]+0.249*[#   4]+0.249*[#  16]+0.248*[#   8]+
    |psi|^2 = 0.997
==== e(   7) =    -3.59980 eV ==== 
     psi = 0.250*[#   7]+0.250*[#  15]+0.249*[#   3]+0.248*[#  11]+
    |psi|^2 = 0.997
==== e(   8) =    -3.58568 eV ==== 
     psi = 0.250*[#  11]+0.250*[#   3]+0.249*[#  15]+0.249*[#   7]+
    |psi|^2 = 0.997
==== e(   9) =     2.96285 eV ==== 
     psi = 0.002*[#   1]+0.002*[#   5]+0.002*[#   9]+0.002*[#  13]+0.002*[#   2]+
          +0.002*[#   6]+0.002*[#  10]+0.002*[#  14]+
    |psi|^2 = 0.015
==== e(  10) =     3.32872 eV ==== 
     psi = 0.005*[#   6]+0.005*[#  14]+0.005*[#   2]+0.005*[#  10]+
    |psi|^2 = 0.022
==== e(  11) =     4.04819 eV ==== 
     psi = 
    |psi|^2 = 0.003
==== e(  12) =     5.19324 eV ==== 
     psi = 0.002*[#   6]+0.002*[#  14]+0.002*[#   2]+0.002*[#  10]+
    |psi|^2 = 0.008
==== e(  13) =     5.76660 eV ==== 
     psi = 0.001*[#   1]+0.001*[#   5]+0.001*[#   9]+0.001*[#  13]+
    |psi|^2 = 0.008
==== e(  14) =     7.71212 eV ==== 
     psi = 0.018*[#   4]+0.018*[#  12]+0.018*[#   8]+0.018*[#  16]+0.005*[#   2]+
          +0.005*[#   6]+0.005*[#  10]+0.005*[#  14]+
    |psi|^2 = 0.094
==== e(  15) =     7.75025 eV ==== 
     psi = 0.236*[#   8]+0.236*[#  16]+0.235*[#   4]+0.235*[#  12]+0.001*[#   1]+
          +0.001*[#   9]+
    |psi|^2 = 0.945
==== e(  16) =     7.78776 eV ==== 
     psi = 0.238*[#   7]+0.238*[#  15]+0.238*[#   3]+0.237*[#  11]+
    |psi|^2 = 0.951

 k =   0.0000000000  0.0481125224  0.0000000000
==== e(   1) =   -20.03897 eV ==== 
     psi = 0.240*[#   5]+0.240*[#   1]+0.240*[#  13]+0.240*[#   9]+0.004*[#   4]+
          +0.004*[#   8]+0.004*[#  12]+0.004*[#  16]+
    |psi|^2 = 0.979
==== e(   2) =   -19.83792 eV ==== 
     psi = 0.243*[#   9]+0.243*[#  13]+0.243*[#   1]+0.242*[#   5]+0.003*[#   4]+
          +0.003*[#   8]+0.003*[#  12]+0.003*[#  16]+
    |psi|^2 = 0.987
==== e(   3) =    -8.62038 eV ==== 
     psi = 0.238*[#   6]+0.238*[#  14]+0.237*[#   2]+0.237*[#  10]+
    |psi|^2 = 0.954
==== e(   4) =    -7.45158 eV ==== 
     psi = 0.241*[#   2]+0.241*[#  10]+0.240*[#   6]+0.240*[#  14]+0.001*[#   1]+
    |psi|^2 = 0.966
==== e(   5) =    -3.74806 eV ==== 
     psi = 0.248*[#   8]+0.247*[#  16]+0.247*[#   4]+0.246*[#  12]+0.002*[#   1]+
          +0.002*[#   5]+0.002*[#   9]+0.002*[#  13]+
    |psi|^2 = 0.997
==== e(   6) =    -3.73145 eV ==== 
     psi = 0.248*[#  12]+0.247*[#   4]+0.247*[#  16]+0.247*[#   8]+0.002*[#   1]+
          +0.002*[#   5]+0.002*[#   9]+0.002*[#  13]+
    |psi|^2 = 0.997
==== e(   7) =    -3.66683 eV ==== 
     psi = 0.250*[#   7]+0.250*[#  15]+0.249*[#   3]+0.248*[#  11]+
    |psi|^2 = 0.997
==== e(   8) =    -3.65105 eV ==== 
     psi = 0.250*[#  11]+0.249*[#   3]+0.249*[#  15]+0.249*[#   7]+
    |psi|^2 = 0.997
==== e(   9) =     3.00433 eV ==== 
     psi = 0.002*[#   1]+0.002*[#   2]+0.002*[#   5]+0.002*[#   9]+0.002*[#  10]+
          +0.002*[#  13]+0.002*[#   6]+0.002*[#  14]+0.001*[#   4]+0.001*[#   8]+
          +0.001*[#  12]+0.001*[#  16]+
    |psi|^2 = 0.018
==== e(  10) =     3.37057 eV ==== 
     psi = 0.005*[#   6]+0.005*[#  14]+0.005*[#   2]+0.005*[#  10]+
    |psi|^2 = 0.022
==== e(  11) =     4.09055 eV ==== 
     psi = 
    |psi|^2 = 0.003
==== e(  12) =     5.23523 eV ==== 
     psi = 0.002*[#   6]+0.002*[#  14]+0.002*[#   2]+0.002*[#  10]+
    |psi|^2 = 0.008
==== e(  13) =     5.80644 eV ==== 
     psi = 0.001*[#   1]+0.001*[#   5]+0.001*[#   9]+0.001*[#  13]+
    |psi|^2 = 0.009
==== e(  14) =     7.73091 eV ==== 
     psi = 0.055*[#   4]+0.055*[#  12]+0.054*[#   8]+0.054*[#  16]+0.004*[#   6]+
          +0.004*[#  14]+0.004*[#   2]+0.004*[#  10]+0.003*[#   5]+0.003*[#  13]+
          +0.002*[#   1]+0.002*[#   9]+
    |psi|^2 = 0.242
==== e(  15) =     7.76406 eV ==== 
     psi = 0.229*[#   8]+0.229*[#  16]+0.228*[#   4]+0.227*[#  12]+0.004*[#   1]+
          +0.004*[#   9]+0.004*[#   5]+0.004*[#  13]+
    |psi|^2 = 0.928
==== e(  16) =     7.83559 eV ==== 
     psi = 0.180*[#  12]+0.180*[#   4]+0.178*[#  16]+0.178*[#   8]+0.002*[#   5]+
          +0.002*[#  13]+0.002*[#   1]+0.002*[#   9]+0.001*[#   2]+0.001*[#  10]+
    |psi|^2 = 0.730

 k =   0.0000000000  0.0721687836  0.0000000000
==== e(   1) =   -19.98754 eV ==== 
     psi = 0.236*[#   5]+0.236*[#   1]+0.236*[#  13]+0.236*[#   9]+0.008*[#   4]+
          +0.008*[#   8]+0.008*[#  12]+0.008*[#  16]+
    |psi|^2 = 0.979
==== e(   2) =   -19.78710 eV ==== 
     psi = 0.239*[#   9]+0.239*[#  13]+0.238*[#   1]+0.238*[#   5]+0.007*[#   4]+
          +0.008*[#   8]+0.007*[#  12]+0.008*[#  16]+
    |psi|^2 = 0.987
==== e(   3) =    -8.55834 eV ==== 
     psi = 0.238*[#   6]+0.238*[#  14]+0.238*[#   2]+0.238*[#  10]+
    |psi|^2 = 0.955
==== e(   4) =    -7.39179 eV ==== 
     psi = 0.241*[#   2]+0.241*[#  10]+0.240*[#   6]+0.240*[#  14]+
    |psi|^2 = 0.967
==== e(   5) =    -3.95334 eV ==== 
     psi = 0.245*[#   8]+0.245*[#  16]+0.244*[#   4]+0.244*[#  12]+0.005*[#   5]+
          +0.005*[#  13]+0.005*[#   1]+0.005*[#   9]+
    |psi|^2 = 0.997
==== e(   6) =    -3.93339 eV ==== 
     psi = 0.245*[#  12]+0.244*[#  16]+0.244*[#   4]+0.244*[#   8]+0.005*[#   1]+
          +0.005*[#   9]+0.005*[#   5]+0.005*[#  13]+
    |psi|^2 = 0.997
==== e(   7) =    -3.77439 eV ==== 
     psi = 0.250*[#   7]+0.250*[#  15]+0.249*[#   3]+0.249*[#  11]+
    |psi|^2 = 0.997
==== e(   8) =    -3.75635 eV ==== 
     psi = 0.250*[#  11]+0.249*[#   3]+0.249*[#  15]+0.249*[#   7]+
    |psi|^2 = 0.997
==== e(   9) =     3.07346 eV ==== 
     psi = 0.002*[#   4]+0.002*[#   8]+0.002*[#  12]+0.002*[#  16]+0.002*[#   2]+
          +0.002*[#  10]+0.002*[#   6]+0.002*[#  14]+0.001*[#   1]+0.001*[#   5]+
          +0.001*[#   9]+0.001*[#  13]+
    |psi|^2 = 0.021
==== e(  10) =     3.44032 eV ==== 
     psi = 0.005*[#   6]+0.005*[#  14]+0.005*[#   2]+0.005*[#  10]+
    |psi|^2 = 0.022
==== e(  11) =     4.16116 eV ==== 
     psi = 
    |psi|^2 = 0.004
==== e(  12) =     5.30521 eV ==== 
     psi = 0.002*[#   6]+0.002*[#  14]+0.002*[#   2]+0.002*[#  10]+
    |psi|^2 = 0.008
==== e(  13) =     5.87286 eV ==== 
     psi = 0.001*[#   1]+0.001*[#   5]+0.001*[#   9]+0.001*[#  13]+
    |psi|^2 = 0.009
==== e(  14) =     7.76124 eV ==== 
     psi = 0.098*[#   4]+0.098*[#  12]+0.097*[#   8]+0.097*[#  16]+0.007*[#   5]+
          +0.007*[#  13]+0.006*[#   1]+0.006*[#   9]+0.003*[#   6]+0.003*[#  14]+
          +0.002*[#   2]+0.002*[#  10]+
    |psi|^2 = 0.426
==== e(  15) =     7.78291 eV ==== 
     psi = 0.214*[#   8]+0.214*[#  16]+0.212*[#   4]+0.212*[#  12]+0.009*[#   1]+
          +0.009*[#   9]+0.008*[#   5]+0.008*[#  13]+
    |psi|^2 = 0.889
==== e(  16) =     7.89659 eV ==== 
     psi = 0.136*[#  12]+0.136*[#   4]+0.134*[#  16]+0.134*[#   8]+0.004*[#   5]+
          +0.004*[#  13]+0.004*[#   1]+0.004*[#   9]+0.002*[#   2]+0.002*[#  10]+
          +0.001*[#   6]+0.001*[#  14]+
    |psi|^2 = 0.563

 k =   0.0000000000  0.0962250449  0.0000000000
==== e(   1) =   -19.91558 eV ==== 
     psi = 0.230*[#   5]+0.230*[#   1]+0.230*[#  13]+0.230*[#   9]+0.014*[#   4]+
          +0.014*[#   8]+0.014*[#  12]+0.014*[#  16]+
    |psi|^2 = 0.979
==== e(   2) =   -19.71600 eV ==== 
     psi = 0.233*[#   9]+0.233*[#   1]+0.233*[#  13]+0.233*[#   5]+0.013*[#   4]+
          +0.013*[#   8]+0.013*[#  12]+0.013*[#  16]+
    |psi|^2 = 0.986
==== e(   3) =    -8.47160 eV ==== 
     psi = 0.239*[#   6]+0.239*[#  14]+0.238*[#   2]+0.238*[#  10]+
    |psi|^2 = 0.957
==== e(   4) =    -7.30823 eV ==== 
     psi = 0.242*[#   2]+0.242*[#  10]+0.241*[#   6]+0.241*[#  14]+
    |psi|^2 = 0.969
==== e(   5) =    -4.22991 eV ==== 
     psi = 0.241*[#   8]+0.241*[#   4]+0.241*[#  16]+0.240*[#  12]+0.009*[#   5]+
          +0.009*[#  13]+0.008*[#   1]+0.008*[#   9]+
    |psi|^2 = 0.997
==== e(   6) =    -4.20580 eV ==== 
     psi = 0.241*[#  16]+0.241*[#   8]+0.241*[#  12]+0.240*[#   4]+0.009*[#   1]+
          +0.009*[#   9]+0.008*[#   5]+0.009*[#  13]+
    |psi|^2 = 0.997
==== e(   7) =    -3.91701 eV ==== 
     psi = 0.250*[#   7]+0.250*[#  15]+0.249*[#   3]+0.249*[#  11]+
    |psi|^2 = 0.997
==== e(   8) =    -3.89652 eV ==== 
     psi = 0.250*[#  11]+0.249*[#   3]+0.249*[#  15]+0.249*[#   7]+
    |psi|^2 = 0.997
==== e(   9) =     3.17024 eV ==== 
     psi = 0.004*[#   4]+0.004*[#   8]+0.004*[#  12]+0.004*[#  16]+0.002*[#   2]+
          +0.002*[#  10]+0.001*[#   6]+0.001*[#  14]+
    |psi|^2 = 0.026
==== e(  10) =     3.53794 eV ==== 
     psi = 0.005*[#   6]+0.005*[#  14]+0.004*[#   2]+0.004*[#  10]+0.001*[#   4]+
          +0.001*[#   8]+0.001*[#  12]+0.001*[#  16]+
    |psi|^2 = 0.023
==== e(  11) =     4.26002 eV ==== 
     psi = 
    |psi|^2 = 0.005
==== e(  12) =     5.40316 eV ==== 
     psi = 0.002*[#   6]+0.002*[#  14]+0.001*[#   2]+0.001*[#  10]+
    |psi|^2 = 0.008
==== e(  13) =     5.96583 eV ==== 
     psi = 
    |psi|^2 = 0.009
==== e(  14) =     7.79008 eV ==== 
     psi = 0.173*[#   4]+0.172*[#  12]+0.171*[#   8]+0.171*[#  16]+0.015*[#   5]+
          +0.015*[#  13]+0.014*[#   1]+0.014*[#   9]+0.002*[#   6]+0.002*[#  14]+
    |psi|^2 = 0.750
==== e(  15) =     7.80698 eV ==== 
     psi = 0.164*[#   8]+0.164*[#  16]+0.162*[#   4]+0.162*[#  12]+0.015*[#   1]+
          +0.015*[#   9]+0.013*[#   5]+0.013*[#  13]+0.002*[#   6]+0.002*[#  14]+
    |psi|^2 = 0.712
==== e(  16) =     7.97732 eV ==== 
     psi = 0.092*[#   4]+0.092*[#  12]+0.091*[#   8]+0.091*[#  16]+0.005*[#   5]+
          +0.005*[#  13]+0.004*[#   1]+0.004*[#   9]+0.004*[#   2]+0.004*[#  10]+
          +0.002*[#   6]+0.002*[#  14]+
    |psi|^2 = 0.396

 k =   0.0000000000  0.1202813061  0.0000000000
==== e(   1) =   -19.82315 eV ==== 
     psi = 0.224*[#   5]+0.223*[#   1]+0.223*[#  13]+0.223*[#   9]+0.021*[#   4]+
          +0.021*[#   8]+0.021*[#  12]+0.021*[#  16]+
    |psi|^2 = 0.979
==== e(   2) =   -19.62467 eV ==== 
     psi = 0.227*[#   9]+0.227*[#   1]+0.227*[#  13]+0.227*[#   5]+0.019*[#   4]+
          +0.019*[#   8]+0.019*[#  12]+0.019*[#  16]+
    |psi|^2 = 0.986
==== e(   3) =    -8.36031 eV ==== 
     psi = 0.239*[#   6]+0.239*[#  14]+0.239*[#   2]+0.239*[#  10]+
    |psi|^2 = 0.959
==== e(   4) =    -7.20110 eV ==== 
     psi = 0.242*[#   2]+0.242*[#  10]+0.241*[#   6]+0.241*[#  14]+
    |psi|^2 = 0.971
==== e(   5) =    -4.56891 eV ==== 
     psi = 0.237*[#   4]+0.237*[#  12]+0.236*[#   8]+0.236*[#  16]+0.013*[#   5]+
          +0.013*[#  13]+0.013*[#   1]+0.013*[#   9]+
    |psi|^2 = 0.997
==== e(   6) =    -4.53998 eV ==== 
     psi = 0.237*[#  16]+0.237*[#   8]+0.236*[#  12]+0.235*[#   4]+0.013*[#   1]+
          +0.013*[#   9]+0.013*[#   5]+0.013*[#  13]+
    |psi|^2 = 0.997
==== e(   7) =    -4.08838 eV ==== 
     psi = 0.250*[#   7]+0.250*[#  15]+0.249*[#   3]+0.249*[#  11]+
    |psi|^2 = 0.997
==== e(   8) =    -4.06555 eV ==== 
     psi = 0.250*[#  11]+0.249*[#   3]+0.249*[#  15]+0.249*[#   7]+
    |psi|^2 = 0.997
==== e(   9) =     3.29466 eV ==== 
     psi = 0.005*[#   4]+0.005*[#   8]+0.005*[#  12]+0.005*[#  16]+0.002*[#   2]+
          +0.002*[#  10]+0.001*[#   6]+0.001*[#  14]+
    |psi|^2 = 0.030
==== e(  10) =     3.66339 eV ==== 
     psi = 0.004*[#   6]+0.004*[#  14]+0.004*[#   2]+0.004*[#  10]+0.002*[#   4]+
          +0.002*[#   8]+0.002*[#  12]+0.002*[#  16]+
    |psi|^2 = 0.023
==== e(  11) =     4.38714 eV ==== 
     psi = 0.001*[#   4]+0.001*[#   8]+0.001*[#  12]+0.001*[#  16]+
    |psi|^2 = 0.005
==== e(  12) =     5.52904 eV ==== 
     psi = 0.002*[#   6]+0.002*[#  14]+0.001*[#   2]+0.001*[#  10]+
    |psi|^2 = 0.008
==== e(  13) =     6.08525 eV ==== 
     psi = 
    |psi|^2 = 0.010
==== e(  14) =     7.79949 eV ==== 
     psi = 0.192*[#   8]+0.192*[#   4]+0.192*[#  16]+0.192*[#  12]+0.025*[#   5]+
          +0.025*[#  13]+0.025*[#   1]+0.025*[#   9]+
    |psi|^2 = 0.868
==== e(  15) =     7.83707 eV ==== 
     psi = 0.157*[#   8]+0.157*[#  16]+0.156*[#   4]+0.157*[#  12]+0.023*[#   1]+
          +0.023*[#   9]+0.022*[#   5]+0.022*[#  13]+0.002*[#   6]+0.002*[#  14]+
    |psi|^2 = 0.720
==== e(  16) =     8.08040 eV ==== 
     psi = 0.056*[#   4]+0.057*[#  12]+0.055*[#   8]+0.055*[#  16]+0.005*[#   5]+
          +0.005*[#  13]+0.004*[#   2]+0.004*[#  10]+0.004*[#   1]+0.004*[#   9]+
          +0.002*[#   6]+0.002*[#  14]+
    |psi|^2 = 0.255

 k =   0.0000000000  0.1443375673  0.0000000000
==== e(   1) =   -19.71030 eV ==== 
     psi = 0.216*[#   5]+0.216*[#   1]+0.216*[#  13]+0.216*[#   9]+0.028*[#   4]+
          +0.028*[#   8]+0.028*[#  12]+0.028*[#  16]+
    |psi|^2 = 0.979
==== e(   2) =   -19.51316 eV ==== 
     psi = 0.220*[#   9]+0.220*[#   1]+0.220*[#  13]+0.220*[#   5]+0.026*[#   4]+
          +0.026*[#   8]+0.026*[#  12]+0.026*[#  16]+
    |psi|^2 = 0.986
==== e(   3) =    -8.22456 eV ==== 
     psi = 0.240*[#   6]+0.240*[#  14]+0.239*[#   2]+0.239*[#  10]+
    |psi|^2 = 0.961
==== e(   4) =    -7.07053 eV ==== 
     psi = 0.243*[#   2]+0.243*[#  10]+0.242*[#   6]+0.242*[#  14]+
    |psi|^2 = 0.973
==== e(   5) =    -4.96092 eV ==== 
     psi = 0.232*[#   4]+0.232*[#  12]+0.231*[#   8]+0.231*[#  16]+0.018*[#   5]+
          +0.018*[#  13]+0.017*[#   1]+0.017*[#   9]+
    |psi|^2 = 0.997
==== e(   6) =    -4.92678 eV ==== 
     psi = 0.232*[#  16]+0.232*[#   8]+0.230*[#  12]+0.230*[#   4]+0.018*[#   1]+
          +0.018*[#   9]+0.017*[#   5]+0.017*[#  13]+
    |psi|^2 = 0.996
==== e(   7) =    -4.28175 eV ==== 
     psi = 0.250*[#   7]+0.250*[#  15]+0.249*[#   3]+0.249*[#  11]+
    |psi|^2 = 0.997
==== e(   8) =    -4.25661 eV ==== 
     psi = 0.250*[#  11]+0.249*[#  15]+0.249*[#   3]+0.249*[#   7]+
    |psi|^2 = 0.997
==== e(   9) =     3.44671 eV ==== 
     psi = 0.007*[#   4]+0.007*[#   8]+0.007*[#  12]+0.007*[#  16]+0.002*[#   2]+
          +0.002*[#  10]+0.001*[#   6]+0.001*[#  14]+
    |psi|^2 = 0.034
==== e(  10) =     3.81663 eV ==== 
     psi = 0.004*[#   6]+0.004*[#  14]+0.004*[#   2]+0.004*[#  10]+0.002*[#   4]+
          +0.002*[#   8]+0.002*[#  12]+0.002*[#  16]+
    |psi|^2 = 0.024
==== e(  11) =     4.54250 eV ==== 
     psi = 0.001*[#   4]+0.001*[#   8]+0.001*[#  12]+0.001*[#  16]+
    |psi|^2 = 0.006
==== e(  12) =     5.68280 eV ==== 
     psi = 0.001*[#   6]+0.001*[#  14]+0.001*[#   2]+0.001*[#  10]+
    |psi|^2 = 0.008
==== e(  13) =     6.23089 eV ==== 
     psi = 
    |psi|^2 = 0.010
==== e(  14) =     7.79197 eV ==== 
     psi = 0.185*[#   8]+0.185*[#  16]+0.184*[#   4]+0.184*[#  12]+0.036*[#   1]+
          +0.036*[#   5]+0.036*[#   9]+0.036*[#  13]+0.001*[#   6]+0.001*[#  14]+
    |psi|^2 = 0.883
==== e(  15) =     7.85638 eV ==== 
     psi = 0.163*[#   4]+0.163*[#  12]+0.162*[#   8]+0.162*[#  16]+0.034*[#   1]+
          +0.034*[#   9]+0.034*[#   5]+0.034*[#  13]+0.002*[#   6]+0.002*[#  14]+
    |psi|^2 = 0.789
==== e(  16) =     8.20837 eV ==== 
     psi = 0.033*[#   4]+0.033*[#  12]+0.032*[#   8]+0.032*[#  16]+0.005*[#   2]+
          +0.005*[#  10]+0.004*[#   5]+0.004*[#  13]+0.003*[#   1]+0.003*[#   9]+
          +0.002*[#   6]+0.002*[#  14]+
    |psi|^2 = 0.161

 k =   0.0000000000  0.1683938285  0.0000000000
==== e(   1) =   -19.57712 eV ==== 
     psi = 0.209*[#   5]+0.208*[#   1]+0.209*[#  13]+0.208*[#   9]+0.036*[#   4]+
          +0.036*[#   8]+0.036*[#  12]+0.036*[#  16]+
    |psi|^2 = 0.978
==== e(   2) =   -19.38156 eV ==== 
     psi = 0.213*[#   9]+0.213*[#   1]+0.213*[#  13]+0.213*[#   5]+0.033*[#   4]+
          +0.033*[#   8]+0.033*[#  16]+0.033*[#  12]+
    |psi|^2 = 0.986
==== e(   3) =    -8.06466 eV ==== 
     psi = 0.241*[#   6]+0.241*[#  14]+0.240*[#   2]+0.240*[#  10]+
    |psi|^2 = 0.964
==== e(   4) =    -6.91688 eV ==== 
     psi = 0.244*[#   2]+0.244*[#  10]+0.243*[#   6]+0.243*[#  14]+
    |psi|^2 = 0.975
==== e(   5) =    -5.39681 eV ==== 
     psi = 0.228*[#   4]+0.227*[#  12]+0.225*[#   8]+0.225*[#  16]+0.023*[#   5]+
          +0.023*[#  13]+0.022*[#   1]+0.022*[#   9]+
    |psi|^2 = 0.996
==== e(   6) =    -5.35708 eV ==== 
     psi = 0.228*[#  16]+0.227*[#   8]+0.225*[#  12]+0.224*[#   4]+0.023*[#   1]+
          +0.023*[#   9]+0.022*[#   5]+0.022*[#  13]+
    |psi|^2 = 0.995
==== e(   7) =    -4.49079 eV ==== 
     psi = 0.250*[#   7]+0.250*[#  15]+0.249*[#   3]+0.249*[#  11]+
    |psi|^2 = 0.997
==== e(   8) =    -4.46358 eV ==== 
     psi = 0.250*[#  11]+0.249*[#  15]+0.249*[#   3]+0.249*[#   7]+
    |psi|^2 = 0.997
==== e(   9) =     3.62634 eV ==== 
     psi = 0.008*[#   4]+0.008*[#   8]+0.008*[#  12]+0.008*[#  16]+0.001*[#   2]+
          +0.001*[#  10]+0.001*[#   6]+0.001*[#  14]+
    |psi|^2 = 0.037
==== e(  10) =     3.99756 eV ==== 
     psi = 0.004*[#   6]+0.004*[#  14]+0.003*[#   2]+0.003*[#  10]+0.002*[#   4]+
          +0.002*[#   8]+0.002*[#  12]+0.002*[#  16]+
    |psi|^2 = 0.024
==== e(  11) =     4.72609 eV ==== 
     psi = 0.001*[#   4]+0.001*[#   8]+0.001*[#  12]+0.001*[#  16]+
    |psi|^2 = 0.006
==== e(  12) =     5.86432 eV ==== 
     psi = 0.001*[#   6]+0.001*[#  14]+0.001*[#   2]+0.001*[#  10]+
    |psi|^2 = 0.008
==== e(  13) =     6.40224 eV ==== 
     psi = 0.001*[#   1]+0.001*[#   5]+0.001*[#   9]+0.001*[#  13]+
    |psi|^2 = 0.010
==== e(  14) =     7.76661 eV ==== 
     psi = 0.174*[#   8]+0.174*[#  16]+0.173*[#   4]+0.173*[#  12]+0.047*[#   1]+
          +0.047*[#   5]+0.047*[#   9]+0.047*[#  13]+0.002*[#   6]+0.002*[#  14]+
    |psi|^2 = 0.887
==== e(  15) =     7.85806 eV ==== 
     psi = 0.162*[#   4]+0.162*[#  12]+0.160*[#   8]+0.160*[#  16]+0.046*[#   1]+
          +0.046*[#   5]+0.046*[#   9]+0.046*[#  13]+0.002*[#   6]+0.002*[#  14]+
    |psi|^2 = 0.833
==== e(  16) =     8.36012 eV ==== 
     psi = 0.020*[#   4]+0.020*[#  12]+0.019*[#   8]+0.019*[#  16]+0.008*[#   2]+
          +0.008*[#  10]+0.003*[#   5]+0.003*[#  13]+0.003*[#   1]+0.003*[#   6]+
          +0.003*[#   9]+0.003*[#  14]+
    |psi|^2 = 0.109

 k =   0.0000000000  0.1924500897  0.0000000000
==== e(   1) =   -19.42372 eV ==== 
     psi = 0.201*[#   5]+0.201*[#  13]+0.201*[#   1]+0.201*[#   9]+0.043*[#   4]+
          +0.043*[#   8]+0.043*[#  12]+0.043*[#  16]+
    |psi|^2 = 0.978
==== e(   2) =   -19.22998 eV ==== 
     psi = 0.206*[#   9]+0.205*[#   1]+0.205*[#  13]+0.205*[#   5]+0.041*[#   8]+
          +0.041*[#  16]+0.041*[#   4]+0.041*[#  12]+
    |psi|^2 = 0.985
==== e(   3) =    -7.88088 eV ==== 
     psi = 0.242*[#   6]+0.242*[#  14]+0.241*[#   2]+0.241*[#  10]+
    |psi|^2 = 0.967
==== e(   4) =    -6.74052 eV ==== 
     psi = 0.245*[#   2]+0.245*[#  10]+0.243*[#   6]+0.243*[#  14]+
    |psi|^2 = 0.978
==== e(   5) =    -5.86804 eV ==== 
     psi = 0.223*[#   4]+0.222*[#  12]+0.220*[#   8]+0.219*[#  16]+0.028*[#   5]+
          +0.028*[#  13]+0.027*[#   1]+0.027*[#   9]+
    |psi|^2 = 0.996
==== e(   6) =    -5.82256 eV ==== 
     psi = 0.222*[#  16]+0.222*[#   8]+0.219*[#  12]+0.219*[#   4]+0.028*[#   1]+
          +0.028*[#   9]+0.028*[#   5]+0.028*[#  13]+
    |psi|^2 = 0.995
==== e(   7) =    -4.70958 eV ==== 
     psi = 0.250*[#   7]+0.250*[#  15]+0.249*[#   3]+0.249*[#  11]+
    |psi|^2 = 0.997
==== e(   8) =    -4.68057 eV ==== 
     psi = 0.249*[#  11]+0.249*[#  15]+0.249*[#   3]+0.249*[#   7]+
    |psi|^2 = 0.997
==== e(   9) =     3.83348 eV ==== 
     psi = 0.008*[#   4]+0.008*[#   8]+0.008*[#  12]+0.008*[#  16]+0.001*[#   2]+
          +0.001*[#  10]+0.001*[#   6]+0.001*[#  14]+
    |psi|^2 = 0.039
==== e(  10) =     4.20605 eV ==== 
     psi = 0.003*[#   6]+0.003*[#  14]+0.003*[#   2]+0.003*[#  10]+0.003*[#   4]+
          +0.003*[#   8]+0.003*[#  12]+0.003*[#  16]+
    |psi|^2 = 0.023
==== e(  11) =     4.93790 eV ==== 
     psi = 0.001*[#   4]+0.001*[#   8]+0.001*[#  12]+0.001*[#  16]+
    |psi|^2 = 0.006
==== e(  12) =     6.07337 eV ==== 
     psi = 0.001*[#   6]+0.001*[#  14]+
    |psi|^2 = 0.007
==== e(  13) =     6.59828 eV ==== 
     psi = 0.002*[#   5]+0.002*[#  13]+0.001*[#   1]+0.001*[#   9]+
    |psi|^2 = 0.010
==== e(  14) =     7.72325 eV ==== 
     psi = 0.162*[#   8]+0.162*[#  16]+0.160*[#   4]+0.160*[#  12]+0.060*[#   1]+
          +0.060*[#   5]+0.060*[#   9]+0.060*[#  13]+0.003*[#   6]+0.003*[#  14]+
    |psi|^2 = 0.889
==== e(  15) =     7.84070 eV ==== 
     psi = 0.155*[#   4]+0.155*[#  12]+0.153*[#   8]+0.153*[#  16]+0.059*[#   5]+
          +0.059*[#  13]+0.058*[#   1]+0.058*[#   9]+0.004*[#   6]+0.004*[#  14]+
    |psi|^2 = 0.859
==== e(  16) =     8.51266 eV ==== 
     psi = 0.047*[#   2]+0.047*[#  10]+0.021*[#   6]+0.021*[#  14]+0.009*[#   4]+
          +0.009*[#  12]+0.009*[#   8]+0.009*[#  16]+0.002*[#   5]+0.002*[#  13]+
          +0.001*[#   1]+0.001*[#   9]+
    |psi|^2 = 0.177

 k =   0.0000000000  0.2165063509  0.0000000000
==== e(   1) =   -19.25020 eV ==== 
     psi = 0.194*[#   5]+0.193*[#  13]+0.193*[#   1]+0.193*[#   9]+0.051*[#   4]+
          +0.051*[#  12]+0.051*[#   8]+0.051*[#  16]+
    |psi|^2 = 0.978
==== e(   2) =   -19.05850 eV ==== 
     psi = 0.198*[#   9]+0.198*[#   1]+0.198*[#  13]+0.198*[#   5]+0.048*[#   8]+
          +0.048*[#  16]+0.048*[#   4]+0.048*[#  12]+
    |psi|^2 = 0.985
==== e(   3) =    -7.67352 eV ==== 
     psi = 0.243*[#   6]+0.243*[#  14]+0.242*[#   2]+0.241*[#  10]+
    |psi|^2 = 0.970
==== e(   4) =    -6.54214 eV ==== 
     psi = 0.245*[#   2]+0.245*[#  10]+0.243*[#   6]+0.243*[#  14]+
    |psi|^2 = 0.980
==== e(   5) =    -6.36690 eV ==== 
     psi = 0.218*[#   4]+0.217*[#  12]+0.214*[#   8]+0.214*[#  16]+0.034*[#   5]+
          +0.034*[#  13]+0.032*[#   1]+0.032*[#   9]+
    |psi|^2 = 0.995
==== e(   6) =    -6.31536 eV ==== 
     psi = 0.217*[#  16]+0.217*[#   8]+0.213*[#  12]+0.213*[#   4]+0.034*[#   1]+
          +0.034*[#   9]+0.033*[#   5]+0.033*[#  13]+
    |psi|^2 = 0.994
==== e(   7) =    -4.93283 eV ==== 
     psi = 0.250*[#   7]+0.249*[#  15]+0.249*[#   3]+0.249*[#  11]+
    |psi|^2 = 0.997
==== e(   8) =    -4.90217 eV ==== 
     psi = 0.249*[#  11]+0.250*[#  15]+0.249*[#   3]+0.249*[#   7]+
    |psi|^2 = 0.997
==== e(   9) =     4.06806 eV ==== 
     psi = 0.009*[#   4]+0.009*[#   8]+0.009*[#  12]+0.009*[#  16]+0.001*[#   2]+
          +0.001*[#  10]+0.001*[#   6]+0.001*[#  14]+
    |psi|^2 = 0.039
==== e(  10) =     4.44185 eV ==== 
     psi = 0.003*[#   6]+0.003*[#  14]+0.003*[#   4]+0.003*[#   8]+0.003*[#  12]+
          +0.003*[#  16]+0.002*[#   2]+0.002*[#  10]+
    |psi|^2 = 0.022
==== e(  11) =     5.17788 eV ==== 
     psi = 0.001*[#   4]+0.001*[#   8]+0.001*[#  12]+0.001*[#  16]+
    |psi|^2 = 0.006
==== e(  12) =     6.30938 eV ==== 
     psi = 0.001*[#   6]+0.001*[#  14]+
    |psi|^2 = 0.007
==== e(  13) =     6.81655 eV ==== 
     psi = 0.003*[#   5]+0.003*[#  13]+0.002*[#   1]+0.002*[#   9]+0.001*[#   6]+
          +0.001*[#  14]+
    |psi|^2 = 0.015
==== e(  14) =     7.66291 eV ==== 
     psi = 0.149*[#   8]+0.149*[#  16]+0.147*[#   4]+0.147*[#  12]+0.071*[#   5]+
          +0.071*[#  13]+0.071*[#   1]+0.071*[#   9]+0.005*[#   6]+0.005*[#  14]+
          +0.003*[#   2]+0.003*[#  10]+
    |psi|^2 = 0.890
==== e(  15) =     7.80134 eV ==== 
     psi = 0.142*[#   4]+0.142*[#  12]+0.139*[#   8]+0.139*[#  16]+0.068*[#   5]+
          +0.068*[#  13]+0.067*[#   1]+0.067*[#   9]+0.013*[#   6]+0.013*[#  14]+
          +0.009*[#   2]+0.009*[#  10]+
    |psi|^2 = 0.876
==== e(  16) =     8.18602 eV ==== 
     psi = 0.233*[#   2]+0.233*[#  10]+0.214*[#   6]+0.214*[#  14]+0.006*[#   8]+
          +0.006*[#  16]+0.004*[#   4]+0.004*[#  12]+0.004*[#   1]+0.004*[#   9]+
          +0.003*[#   5]+0.003*[#  13]+
    |psi|^2 = 0.928

 k =   0.0000000000  0.2405626122  0.0000000000
==== e(   1) =   -19.05671 eV ==== 
     psi = 0.186*[#   5]+0.186*[#  13]+0.186*[#   1]+0.186*[#   9]+0.058*[#   4]+
          +0.058*[#  12]+0.058*[#   8]+0.058*[#  16]+
    |psi|^2 = 0.978
==== e(   2) =   -18.86727 eV ==== 
     psi = 0.191*[#   9]+0.191*[#   1]+0.191*[#  13]+0.191*[#   5]+0.055*[#   8]+
          +0.055*[#  16]+0.055*[#   4]+0.055*[#  12]+
    |psi|^2 = 0.985
==== e(   3) =    -7.44307 eV ==== 
     psi = 0.244*[#   6]+0.244*[#  14]+0.242*[#   2]+0.242*[#  10]+
    |psi|^2 = 0.974
==== e(   4) =    -6.88683 eV ==== 
     psi = 0.212*[#   4]+0.212*[#  12]+0.208*[#   8]+0.208*[#  16]+0.039*[#   5]+
          +0.039*[#  13]+0.038*[#   1]+0.038*[#   9]+
    |psi|^2 = 0.994
==== e(   5) =    -6.82979 eV ==== 
     psi = 0.212*[#  16]+0.212*[#   8]+0.207*[#  12]+0.207*[#   4]+0.039*[#   1]+
          +0.039*[#   9]+0.038*[#   5]+0.038*[#  13]+
    |psi|^2 = 0.993
==== e(   6) =    -6.32109 eV ==== 
     psi = 0.246*[#   2]+0.246*[#  10]+0.244*[#   6]+0.244*[#  14]+
    |psi|^2 = 0.983
==== e(   7) =    -5.15607 eV ==== 
     psi = 0.250*[#   7]+0.249*[#  15]+0.249*[#   3]+0.249*[#  11]+
    |psi|^2 = 0.997
==== e(   8) =    -5.12397 eV ==== 
     psi = 0.249*[#  11]+0.250*[#  15]+0.249*[#   3]+0.249*[#   7]+
    |psi|^2 = 0.997
==== e(   9) =     4.32994 eV ==== 
     psi = 0.008*[#   4]+0.008*[#   8]+0.008*[#  12]+0.008*[#  16]+0.001*[#   2]+
          +0.001*[#  10]+
    |psi|^2 = 0.038
==== e(  10) =     4.70451 eV ==== 
     psi = 0.003*[#   4]+0.003*[#   6]+0.003*[#   8]+0.003*[#  12]+0.003*[#  14]+
          +0.003*[#  16]+0.002*[#   2]+0.002*[#  10]+
    |psi|^2 = 0.021
==== e(  11) =     5.44596 eV ==== 
     psi = 0.001*[#   4]+0.001*[#   8]+0.001*[#  12]+0.001*[#  16]+
    |psi|^2 = 0.006
==== e(  12) =     6.57046 eV ==== 
     psi = 0.002*[#   6]+0.002*[#  14]+0.001*[#   2]+0.001*[#  10]+
    |psi|^2 = 0.009
==== e(  13) =     7.04908 eV ==== 
     psi = 0.006*[#   5]+0.006*[#  13]+0.006*[#   1]+0.006*[#   9]+0.003*[#   6]+
          +0.003*[#  14]+0.002*[#   2]+0.002*[#   4]+0.002*[#  10]+0.002*[#  12]+
    |psi|^2 = 0.038
==== e(  14) =     7.57692 eV ==== 
     psi = 0.105*[#   8]+0.104*[#   4]+0.104*[#  16]+0.104*[#  12]+0.065*[#   5]+
          +0.065*[#  13]+0.062*[#   1]+0.062*[#   9]+0.058*[#   6]+0.058*[#  14]+
          +0.056*[#   2]+0.056*[#  10]+
    |psi|^2 = 0.899
==== e(  15) =     7.61277 eV ==== 
     psi = 0.150*[#   6]+0.150*[#  14]+0.148*[#   2]+0.148*[#  10]+0.053*[#   4]+
          +0.053*[#  12]+0.053*[#   8]+0.053*[#  16]+0.030*[#   1]+0.030*[#   9]+
          +0.029*[#   5]+0.029*[#  13]+
    |psi|^2 = 0.924
==== e(  16) =     7.82500 eV ==== 
     psi = 0.107*[#   4]+0.107*[#  12]+0.107*[#   8]+0.107*[#  16]+0.066*[#   1]+
          +0.066*[#   9]+0.064*[#   5]+0.064*[#  13]+0.050*[#   2]+0.050*[#  10]+
          +0.042*[#   6]+0.042*[#  14]+
    |psi|^2 = 0.873

 k =   0.0000000000  0.2646188734  0.0000000000
==== e(   1) =   -18.84341 eV ==== 
     psi = 0.180*[#   5]+0.179*[#  13]+0.179*[#   1]+0.179*[#   9]+0.065*[#   4]+
          +0.065*[#  12]+0.065*[#   8]+0.065*[#  16]+
    |psi|^2 = 0.977
==== e(   2) =   -18.65647 eV ==== 
     psi = 0.184*[#   9]+0.184*[#   1]+0.184*[#  13]+0.184*[#   5]+0.062*[#   8]+
          +0.062*[#  16]+0.062*[#   4]+0.062*[#  12]+
    |psi|^2 = 0.985
==== e(   3) =    -7.42251 eV ==== 
     psi = 0.207*[#   4]+0.207*[#  12]+0.203*[#   8]+0.203*[#  16]+0.043*[#   5]+
          +0.043*[#  13]+0.043*[#   1]+0.043*[#   9]+
    |psi|^2 = 0.994
==== e(   4) =    -7.35904 eV ==== 
     psi = 0.207*[#  16]+0.207*[#   8]+0.202*[#  12]+0.202*[#   4]+0.044*[#   1]+
          +0.044*[#   9]+0.043*[#   5]+0.043*[#  13]+
    |psi|^2 = 0.993
==== e(   5) =    -7.18917 eV ==== 
     psi = 0.244*[#   6]+0.244*[#  14]+0.243*[#   2]+0.243*[#  10]+
    |psi|^2 = 0.977
==== e(   6) =    -6.07973 eV ==== 
     psi = 0.247*[#   2]+0.247*[#  10]+0.245*[#   6]+0.245*[#  14]+
    |psi|^2 = 0.986
==== e(   7) =    -5.37549 eV ==== 
     psi = 0.250*[#   7]+0.249*[#  15]+0.249*[#   3]+0.249*[#  11]+
    |psi|^2 = 0.997
==== e(   8) =    -5.34214 eV ==== 
     psi = 0.249*[#  15]+0.249*[#   7]+0.249*[#  11]+0.249*[#   3]+
    |psi|^2 = 0.997
==== e(   9) =     4.61893 eV ==== 
     psi = 0.008*[#   4]+0.008*[#   8]+0.008*[#  12]+0.008*[#  16]+0.001*[#   2]+
          +0.001*[#  10]+
    |psi|^2 = 0.036
==== e(  10) =     4.99288 eV ==== 
     psi = 0.003*[#   6]+0.003*[#  14]+0.003*[#   4]+0.003*[#   8]+0.003*[#  12]+
          +0.003*[#  16]+0.002*[#   2]+0.002*[#  10]+
    |psi|^2 = 0.021
==== e(  11) =     5.74202 eV ==== 
     psi = 0.001*[#   4]+0.001*[#   8]+0.001*[#  12]+0.001*[#  16]+
    |psi|^2 = 0.005
==== e(  12) =     6.83449 eV ==== 
     psi = 0.028*[#   6]+0.028*[#  14]+0.024*[#   2]+0.024*[#  10]+0.001*[#   1]+
          +0.001*[#   9]+
    |psi|^2 = 0.109
==== e(  13) =     7.10679 eV ==== 
     psi = 0.211*[#   2]+0.211*[#  10]+0.201*[#   6]+0.201*[#  14]+0.003*[#   4]+
          +0.003*[#  12]+0.003*[#   5]+0.003*[#   8]+0.003*[#  13]+0.003*[#  16]+
          +0.002*[#   1]+0.002*[#   9]+
    |psi|^2 = 0.846
==== e(  14) =     7.23034 eV ==== 
     psi = 0.061*[#   6]+0.061*[#  14]+0.052*[#   2]+0.052*[#  10]+0.020*[#   5]+
          +0.020*[#  13]+0.018*[#   1]+0.018*[#   9]+0.015*[#   4]+0.015*[#  12]+
          +0.012*[#   8]+0.012*[#  16]+
    |psi|^2 = 0.358
==== e(  15) =     7.43583 eV ==== 
     psi = 0.116*[#   6]+0.116*[#  14]+0.115*[#   2]+0.115*[#  10]+0.033*[#   8]+
          +0.033*[#  16]+0.031*[#   4]+0.031*[#  12]+0.026*[#   1]+0.026*[#   9]+
          +0.025*[#   5]+0.025*[#  13]+
    |psi|^2 = 0.689
==== e(  16) =     7.59572 eV ==== 
     psi = 0.095*[#   8]+0.095*[#  16]+0.091*[#   4]+0.091*[#  12]+0.070*[#   1]+
          +0.070*[#   9]+0.068*[#   5]+0.068*[#  13]+0.068*[#   2]+0.068*[#  10]+
          +0.063*[#   6]+0.063*[#  14]+
    |psi|^2 = 0.911

 k =   0.0000000000  0.2886751346  0.0000000000
==== e(   1) =   -18.61048 eV ==== 
     psi = 0.173*[#   5]+0.173*[#  13]+0.173*[#   1]+0.173*[#   9]+0.071*[#   4]+
          +0.071*[#  12]+0.071*[#   8]+0.071*[#  16]+
    |psi|^2 = 0.977
==== e(   2) =   -18.42627 eV ==== 
     psi = 0.178*[#   9]+0.178*[#   1]+0.178*[#  13]+0.177*[#   5]+0.069*[#   8]+
          +0.069*[#  16]+0.068*[#   4]+0.068*[#  12]+
    |psi|^2 = 0.985
==== e(   3) =    -7.96745 eV ==== 
     psi = 0.202*[#   4]+0.202*[#  12]+0.198*[#   8]+0.198*[#  16]+0.049*[#   5]+
          +0.049*[#  13]+0.048*[#   1]+0.048*[#   9]+
    |psi|^2 = 0.993
==== e(   4) =    -7.89820 eV ==== 
     psi = 0.202*[#  16]+0.202*[#   8]+0.197*[#  12]+0.197*[#   4]+0.049*[#   1]+
          +0.049*[#   9]+0.048*[#   5]+0.048*[#  13]+
    |psi|^2 = 0.992
==== e(   5) =    -6.91447 eV ==== 
     psi = 0.246*[#   6]+0.246*[#  14]+0.244*[#   2]+0.244*[#  10]+
    |psi|^2 = 0.981
==== e(   6) =    -5.81815 eV ==== 
     psi = 0.248*[#   2]+0.248*[#  10]+0.245*[#   6]+0.245*[#  14]+
    |psi|^2 = 0.988
==== e(   7) =    -5.58778 eV ==== 
     psi = 0.250*[#   7]+0.249*[#  15]+0.249*[#   3]+0.249*[#  11]+
    |psi|^2 = 0.997
==== e(   8) =    -5.55333 eV ==== 
     psi = 0.249*[#  15]+0.249*[#   7]+0.249*[#  11]+0.249*[#   3]+
    |psi|^2 = 0.997
==== e(   9) =     4.93467 eV ==== 
     psi = 0.007*[#   4]+0.007*[#   8]+0.007*[#  12]+0.007*[#  16]+0.001*[#   2]+
          +0.001*[#  10]+
    |psi|^2 = 0.033
==== e(  10) =     5.30266 eV ==== 
     psi = 0.005*[#   6]+0.005*[#  14]+0.003*[#   2]+0.003*[#  10]+0.002*[#   4]+
          +0.002*[#   8]+0.002*[#  12]+0.002*[#  16]+
    |psi|^2 = 0.027
==== e(  11) =     6.06574 eV ==== 
     psi = 
    |psi|^2 = 0.004
==== e(  12) =     6.50015 eV ==== 
     psi = 0.228*[#   2]+0.228*[#  10]+0.225*[#   6]+0.225*[#  14]+0.001*[#   4]+
          +0.001*[#  12]+
    |psi|^2 = 0.913
==== e(  13) =     6.86397 eV ==== 
     psi = 0.228*[#   6]+0.228*[#  14]+0.219*[#   2]+0.219*[#  10]+0.004*[#   4]+
          +0.004*[#  12]+0.004*[#   5]+0.004*[#  13]+0.003*[#   8]+0.003*[#  16]+
          +0.003*[#   1]+0.003*[#   9]+
    |psi|^2 = 0.924
==== e(  14) =     7.18449 eV ==== 
     psi = 0.010*[#   1]+0.010*[#   5]+0.010*[#   9]+0.010*[#  13]+0.007*[#   2]+
          +0.007*[#  10]+0.005*[#   8]+0.005*[#  16]+0.005*[#   4]+0.005*[#  12]+
          +0.004*[#   6]+0.004*[#  14]+
    |psi|^2 = 0.081
==== e(  15) =     7.43863 eV ==== 
     psi = 0.077*[#   5]+0.077*[#  13]+0.073*[#   1]+0.074*[#   9]+0.069*[#   4]+
          +0.069*[#  12]+0.066*[#   8]+0.066*[#  16]+0.016*[#   2]+0.016*[#  10]+
          +0.011*[#   6]+0.011*[#  14]+
    |psi|^2 = 0.626
==== e(  16) =     7.51784 eV ==== 
     psi = 0.096*[#   8]+0.096*[#  16]+0.090*[#   4]+0.090*[#  12]+0.087*[#   1]+
          +0.087*[#   9]+0.081*[#   5]+0.081*[#  13]+
    |psi|^2 = 0.712

 k =   0.0000000000  0.3127313958  0.0000000000
==== e(   1) =   -18.35818 eV ==== 
     psi = 0.167*[#   5]+0.167*[#  13]+0.167*[#   1]+0.167*[#   9]+0.077*[#   4]+
          +0.077*[#  12]+0.077*[#   8]+0.077*[#  16]+
    |psi|^2 = 0.977
==== e(   2) =   -18.17689 eV ==== 
     psi = 0.172*[#   1]+0.172*[#   9]+0.171*[#   5]+0.171*[#  13]+0.075*[#   8]+
          +0.075*[#  16]+0.074*[#   4]+0.074*[#  12]+
    |psi|^2 = 0.984
==== e(   3) =    -8.51852 eV ==== 
     psi = 0.198*[#   4]+0.197*[#  12]+0.193*[#   8]+0.193*[#  16]+0.053*[#   5]+
          +0.053*[#  13]+0.052*[#   1]+0.052*[#   9]+
    |psi|^2 = 0.992
==== e(   4) =    -8.44343 eV ==== 
     psi = 0.197*[#  16]+0.197*[#   8]+0.192*[#  12]+0.192*[#   4]+0.054*[#   1]+
          +0.054*[#   9]+0.053*[#   5]+0.053*[#  13]+
    |psi|^2 = 0.992
==== e(   5) =    -6.61828 eV ==== 
     psi = 0.247*[#   6]+0.247*[#  14]+0.245*[#   2]+0.245*[#  10]+
    |psi|^2 = 0.984
==== e(   6) =    -5.79033 eV ==== 
     psi = 0.249*[#   7]+0.249*[#  15]+0.249*[#   3]+0.249*[#  11]+
    |psi|^2 = 0.997
==== e(   7) =    -5.75489 eV ==== 
     psi = 0.249*[#  15]+0.249*[#   7]+0.249*[#  11]+0.249*[#   3]+
    |psi|^2 = 0.997
==== e(   8) =    -5.53763 eV ==== 
     psi = 0.249*[#   2]+0.249*[#  10]+0.246*[#   6]+0.246*[#  14]+
    |psi|^2 = 0.990
==== e(   9) =     5.27578 eV ==== 
     psi = 0.006*[#   4]+0.006*[#   8]+0.006*[#  12]+0.006*[#  16]+0.003*[#   2]+
          +0.003*[#  10]+
    |psi|^2 = 0.032
==== e(  10) =     5.58757 eV ==== 
     psi = 0.049*[#   6]+0.049*[#  14]+0.040*[#   2]+0.040*[#  10]+0.002*[#   4]+
          +0.002*[#  12]+0.002*[#   8]+0.002*[#  16]+
    |psi|^2 = 0.185
==== e(  11) =     5.97917 eV ==== 
     psi = 0.197*[#   2]+0.197*[#  10]+0.185*[#   6]+0.185*[#  14]+0.001*[#   4]+
          +0.001*[#  12]+
    |psi|^2 = 0.767
==== e(  12) =     6.33269 eV ==== 
     psi = 0.230*[#   6]+0.230*[#  14]+0.222*[#   2]+0.222*[#  10]+0.001*[#   5]+
          +0.001*[#  13]+0.001*[#   1]+0.001*[#   4]+0.001*[#   9]+0.001*[#  12]+
    |psi|^2 = 0.914
==== e(  13) =     6.41938 eV ==== 
     psi = 0.007*[#   6]+0.007*[#  14]+0.006*[#   2]+0.006*[#  10]+
    |psi|^2 = 0.029
==== e(  14) =     7.31780 eV ==== 
     psi = 0.102*[#   5]+0.102*[#  13]+0.100*[#   1]+0.100*[#   9]+0.085*[#   8]+
          +0.085*[#  16]+0.083*[#   4]+0.083*[#  12]+0.004*[#   2]+0.004*[#  10]+
          +0.001*[#   6]+0.001*[#  14]+
    |psi|^2 = 0.750
==== e(  15) =     7.47935 eV ==== 
     psi = 0.098*[#   9]+0.098*[#   1]+0.096*[#  13]+0.096*[#   5]+0.076*[#  12]+
          +0.076*[#   4]+0.075*[#  16]+0.075*[#   8]+0.002*[#   2]+0.002*[#  10]+
    |psi|^2 = 0.694
==== e(  16) =     7.59483 eV ==== 
     psi = 0.030*[#   8]+0.030*[#  16]+0.029*[#   4]+0.029*[#  12]+0.022*[#   1]+
          +0.022*[#   9]+0.021*[#   5]+0.021*[#  13]+0.002*[#   6]+0.002*[#  14]+
          +0.001*[#   2]+0.001*[#  10]+
    |psi|^2 = 0.214

 k =   0.0000000000  0.3367876570  0.0000000000
==== e(   1) =   -18.08677 eV ==== 
     psi = 0.161*[#   5]+0.161*[#  13]+0.161*[#   1]+0.161*[#   9]+0.083*[#   4]+
          +0.083*[#  12]+0.083*[#   8]+0.083*[#  16]+
    |psi|^2 = 0.977
==== e(   2) =   -17.90866 eV ==== 
     psi = 0.166*[#   1]+0.166*[#   9]+0.166*[#   5]+0.166*[#  13]+0.080*[#   8]+
          +0.080*[#  16]+0.080*[#   4]+0.080*[#  12]+
    |psi|^2 = 0.984
==== e(   3) =    -9.07179 eV ==== 
     psi = 0.193*[#   4]+0.193*[#  12]+0.189*[#   8]+0.188*[#  16]+0.058*[#   5]+
          +0.058*[#  13]+0.057*[#   1]+0.057*[#   9]+
    |psi|^2 = 0.992
==== e(   4) =    -8.99086 eV ==== 
     psi = 0.192*[#  16]+0.192*[#   8]+0.188*[#  12]+0.188*[#   4]+0.058*[#   1]+
          +0.059*[#   9]+0.057*[#   5]+0.057*[#  13]+
    |psi|^2 = 0.991
==== e(   5) =    -6.30207 eV ==== 
     psi = 0.248*[#   6]+0.248*[#  14]+0.245*[#   2]+0.245*[#  10]+
    |psi|^2 = 0.987
==== e(   6) =    -5.98092 eV ==== 
     psi = 0.249*[#   7]+0.249*[#   3]+0.249*[#  15]+0.249*[#  11]+
    |psi|^2 = 0.997
==== e(   7) =    -5.94467 eV ==== 
     psi = 0.249*[#  15]+0.249*[#   7]+0.249*[#  11]+0.249*[#   3]+
    |psi|^2 = 0.997
==== e(   8) =    -5.23968 eV ==== 
     psi = 0.249*[#   2]+0.249*[#  10]+0.246*[#   6]+0.246*[#  14]+
    |psi|^2 = 0.992
==== e(   9) =     5.26639 eV ==== 
     psi = 0.221*[#   6]+0.221*[#  14]+0.220*[#   2]+0.220*[#  10]+
    |psi|^2 = 0.882
==== e(  10) =     5.64149 eV ==== 
     psi = 0.021*[#   6]+0.021*[#  14]+0.014*[#   2]+0.014*[#  10]+0.005*[#   4]+
          +0.005*[#   8]+0.005*[#  12]+0.005*[#  16]+
    |psi|^2 = 0.090
==== e(  11) =     5.77945 eV ==== 
     psi = 0.219*[#   2]+0.219*[#  10]+0.209*[#   6]+0.209*[#  14]+0.001*[#   4]+
          +0.001*[#  12]+
    |psi|^2 = 0.861
==== e(  12) =     6.08667 eV ==== 
     psi = 0.022*[#   6]+0.022*[#  14]+0.018*[#   2]+0.018*[#  10]+
    |psi|^2 = 0.087
==== e(  13) =     6.79317 eV ==== 
     psi = 0.002*[#   1]+0.002*[#   5]+0.002*[#   9]+0.002*[#  13]+
    |psi|^2 = 0.010
==== e(  14) =     7.25160 eV ==== 
     psi = 0.122*[#   5]+0.122*[#  13]+0.120*[#   1]+0.120*[#   9]+0.093*[#   8]+
          +0.093*[#  16]+0.091*[#   4]+0.091*[#  12]+0.002*[#   2]+0.002*[#  10]+
    |psi|^2 = 0.857
==== e(  15) =     7.43914 eV ==== 
     psi = 0.121*[#   1]+0.121*[#   9]+0.118*[#   5]+0.118*[#  13]+0.088*[#   4]+
          +0.088*[#  12]+0.087*[#   8]+0.087*[#  16]+
    |psi|^2 = 0.830
==== e(  16) =     7.94330 eV ==== 
     psi = 0.006*[#   4]+0.006*[#   8]+0.006*[#  12]+0.006*[#  16]+0.003*[#   1]+
          +0.003*[#   5]+0.003*[#   9]+0.003*[#  13]+0.001*[#   2]+0.001*[#   6]+
          +0.001*[#  10]+0.001*[#  14]+
    |psi|^2 = 0.040

 k =   0.0000000000  0.3608439182  0.0000000000
==== e(   1) =   -17.79660 eV ==== 
     psi = 0.156*[#   5]+0.156*[#  13]+0.156*[#   1]+0.156*[#   9]+0.088*[#   4]+
          +0.088*[#  12]+0.088*[#   8]+0.088*[#  16]+
    |psi|^2 = 0.977
==== e(   2) =   -17.62187 eV ==== 
     psi = 0.161*[#   1]+0.161*[#   9]+0.160*[#   5]+0.160*[#  13]+0.086*[#   8]+
          +0.086*[#  16]+0.085*[#   4]+0.085*[#  12]+
    |psi|^2 = 0.985
==== e(   3) =    -9.62405 eV ==== 
     psi = 0.188*[#   4]+0.188*[#  12]+0.184*[#   8]+0.184*[#  16]+0.062*[#   5]+
          +0.062*[#  13]+0.061*[#   1]+0.061*[#   9]+
    |psi|^2 = 0.991
==== e(   4) =    -9.53738 eV ==== 
     psi = 0.188*[#  16]+0.188*[#   8]+0.183*[#  12]+0.183*[#   4]+0.063*[#   1]+
          +0.063*[#   9]+0.062*[#   5]+0.062*[#  13]+
    |psi|^2 = 0.991
==== e(   5) =    -6.15778 eV ==== 
     psi = 0.249*[#   7]+0.249*[#   3]+0.249*[#  15]+0.249*[#  11]+
    |psi|^2 = 0.997
==== e(   6) =    -6.12079 eV ==== 
     psi = 0.249*[#  15]+0.249*[#   7]+0.249*[#  11]+0.249*[#   3]+
    |psi|^2 = 0.997
==== e(   7) =    -5.96729 eV ==== 
     psi = 0.249*[#   6]+0.249*[#  14]+0.246*[#   2]+0.246*[#  10]+
    |psi|^2 = 0.989
==== e(   8) =    -4.92647 eV ==== 
     psi = 0.250*[#   2]+0.250*[#  10]+0.246*[#   6]+0.246*[#  14]+
    |psi|^2 = 0.993
==== e(   9) =     4.68983 eV ==== 
     psi = 0.232*[#   6]+0.232*[#  14]+0.230*[#   2]+0.230*[#  10]+
    |psi|^2 = 0.924
==== e(  10) =     5.21743 eV ==== 
     psi = 0.235*[#   2]+0.235*[#   6]+0.235*[#  10]+0.235*[#  14]+
    |psi|^2 = 0.944
==== e(  11) =     6.04439 eV ==== 
     psi = 0.003*[#   4]+0.003*[#   8]+0.003*[#  12]+0.003*[#  16]+0.001*[#   6]+
          +0.001*[#  14]+
    |psi|^2 = 0.022
==== e(  12) =     6.45961 eV ==== 
     psi = 0.005*[#   2]+0.005*[#  10]+0.005*[#   6]+0.005*[#  14]+0.002*[#   5]+
          +0.002*[#  13]+0.001*[#   1]+0.001*[#   9]+
    |psi|^2 = 0.027
==== e(  13) =     7.13987 eV ==== 
     psi = 0.082*[#   5]+0.082*[#  13]+0.080*[#   1]+0.080*[#   9]+0.048*[#   8]+
          +0.048*[#  16]+0.047*[#   4]+0.047*[#  12]+
    |psi|^2 = 0.517
==== e(  14) =     7.21532 eV ==== 
     psi = 0.068*[#   1]+0.068*[#   9]+0.067*[#   5]+0.067*[#  13]+0.048*[#   8]+
          +0.048*[#  16]+0.047*[#   4]+0.047*[#  12]+
    |psi|^2 = 0.459
==== e(  15) =     7.40091 eV ==== 
     psi = 0.113*[#   1]+0.114*[#   9]+0.111*[#   5]+0.112*[#  13]+0.079*[#   4]+
          +0.079*[#  12]+0.078*[#   8]+0.078*[#  16]+
    |psi|^2 = 0.766
==== e(  16) =     8.34182 eV ==== 
     psi = 0.003*[#   4]+0.003*[#   8]+0.003*[#  12]+0.003*[#  16]+
    |psi|^2 = 0.021

 k =   0.0000000000  0.3849001795  0.0000000000
==== e(   1) =   -17.48810 eV ==== 
     psi = 0.152*[#   5]+0.152*[#  13]+0.151*[#   1]+0.151*[#   9]+0.093*[#   4]+
          +0.093*[#  12]+0.093*[#   8]+0.093*[#  16]+
    |psi|^2 = 0.978
==== e(   2) =   -17.31700 eV ==== 
     psi = 0.156*[#   1]+0.156*[#   9]+0.155*[#   5]+0.155*[#  13]+0.091*[#   8]+
          +0.091*[#  16]+0.090*[#   4]+0.090*[#  12]+
    |psi|^2 = 0.985
==== e(   3) =   -10.17249 eV ==== 
     psi = 0.184*[#   4]+0.184*[#  12]+0.180*[#   8]+0.180*[#  16]+0.066*[#   5]+
          +0.066*[#  13]+0.065*[#   1]+0.065*[#   9]+
    |psi|^2 = 0.990
==== e(   4) =   -10.08018 eV ==== 
     psi = 0.183*[#  16]+0.183*[#   8]+0.179*[#  12]+0.179*[#   4]+0.067*[#   1]+
          +0.067*[#   9]+0.066*[#   5]+0.066*[#  13]+
    |psi|^2 = 0.991
==== e(   5) =    -6.31930 eV ==== 
     psi = 0.249*[#   7]+0.249*[#   3]+0.249*[#  15]+0.249*[#  11]+
    |psi|^2 = 0.996
==== e(   6) =    -6.28170 eV ==== 
     psi = 0.249*[#  15]+0.249*[#   7]+0.249*[#  11]+0.249*[#   3]+
    |psi|^2 = 0.997
==== e(   7) =    -5.61582 eV ==== 
     psi = 0.250*[#   6]+0.250*[#  14]+0.246*[#   2]+0.246*[#  10]+
    |psi|^2 = 0.992
==== e(   8) =    -4.60083 eV ==== 
     psi = 0.251*[#   2]+0.251*[#  10]+0.246*[#   6]+0.246*[#  14]+
    |psi|^2 = 0.995
==== e(   9) =     4.10337 eV ==== 
     psi = 0.234*[#   6]+0.234*[#  14]+0.231*[#   2]+0.231*[#  10]+
    |psi|^2 = 0.932
==== e(  10) =     4.66224 eV ==== 
     psi = 0.237*[#   2]+0.237*[#  10]+0.236*[#   6]+0.236*[#  14]+
    |psi|^2 = 0.947
==== e(  11) =     6.45835 eV ==== 
     psi = 0.004*[#   1]+0.004*[#   5]+0.004*[#   9]+0.004*[#  13]+0.001*[#   8]+
          +0.001*[#  16]+0.001*[#   4]+0.001*[#  12]+
    |psi|^2 = 0.021
==== e(  12) =     6.85925 eV ==== 
     psi = 0.017*[#   5]+0.017*[#  13]+0.016*[#   1]+0.016*[#   9]+0.004*[#   4]+
          +0.004*[#  12]+0.003*[#   8]+0.003*[#  16]+0.003*[#   2]+0.003*[#  10]+
          +0.002*[#   6]+0.002*[#  14]+
    |psi|^2 = 0.089
==== e(  13) =     7.11484 eV ==== 
     psi = 0.122*[#   5]+0.122*[#  13]+0.120*[#   1]+0.120*[#   9]+0.078*[#   8]+
          +0.078*[#  16]+0.077*[#   4]+0.077*[#  12]+0.001*[#   2]+0.001*[#  10]+
    |psi|^2 = 0.798
==== e(  14) =     7.29596 eV ==== 
     psi = 0.133*[#   1]+0.133*[#   9]+0.130*[#   5]+0.130*[#  13]+0.075*[#   4]+
          +0.075*[#  12]+0.074*[#   8]+0.074*[#  16]+
    |psi|^2 = 0.824
==== e(  15) =     7.67025 eV ==== 
     psi = 0.009*[#   4]+0.009*[#   8]+0.009*[#  12]+0.009*[#  16]+0.007*[#   1]+
          +0.007*[#   5]+0.007*[#   9]+0.007*[#  13]+
    |psi|^2 = 0.063
==== e(  16) =     8.77093 eV ==== 
     psi = 0.002*[#   4]+0.002*[#   8]+0.002*[#  12]+0.002*[#  16]+
    |psi|^2 = 0.014

 k =   0.0000000000  0.4089564407  0.0000000000
==== e(   1) =   -17.16185 eV ==== 
     psi = 0.147*[#   5]+0.147*[#  13]+0.147*[#   1]+0.147*[#   9]+0.098*[#   4]+
          +0.098*[#  12]+0.097*[#   8]+0.097*[#  16]+
    |psi|^2 = 0.978
==== e(   2) =   -16.99466 eV ==== 
     psi = 0.151*[#   1]+0.151*[#   9]+0.151*[#   5]+0.151*[#  13]+0.095*[#   8]+
          +0.096*[#  16]+0.095*[#   4]+0.095*[#  12]+
    |psi|^2 = 0.985
==== e(   3) =   -10.71430 eV ==== 
     psi = 0.180*[#   4]+0.180*[#  12]+0.177*[#   8]+0.176*[#  16]+0.070*[#   5]+
          +0.070*[#  13]+0.069*[#   1]+0.068*[#   9]+
    |psi|^2 = 0.989
==== e(   4) =   -10.61669 eV ==== 
     psi = 0.179*[#  16]+0.179*[#   8]+0.176*[#  12]+0.175*[#   4]+0.071*[#   1]+
          +0.071*[#   9]+0.069*[#   5]+0.070*[#  13]+
    |psi|^2 = 0.990
==== e(   5) =    -6.46423 eV ==== 
     psi = 0.249*[#   7]+0.249*[#   3]+0.249*[#  15]+0.249*[#  11]+
    |psi|^2 = 0.996
==== e(   6) =    -6.42616 eV ==== 
     psi = 0.249*[#  15]+0.249*[#   7]+0.249*[#  11]+0.249*[#   3]+
    |psi|^2 = 0.997
==== e(   7) =    -5.25042 eV ==== 
     psi = 0.251*[#   6]+0.251*[#  14]+0.245*[#   2]+0.245*[#  10]+
    |psi|^2 = 0.993
==== e(   8) =    -4.26689 eV ==== 
     psi = 0.253*[#   2]+0.253*[#  10]+0.245*[#   6]+0.245*[#  14]+
    |psi|^2 = 0.996
==== e(   9) =     3.52642 eV ==== 
     psi = 0.236*[#   6]+0.236*[#  14]+0.231*[#   2]+0.231*[#  10]+
    |psi|^2 = 0.935
==== e(  10) =     4.11233 eV ==== 
     psi = 0.238*[#   2]+0.238*[#  10]+0.235*[#   6]+0.235*[#  14]+
    |psi|^2 = 0.948
==== e(  11) =     6.85890 eV ==== 
     psi = 0.040*[#   5]+0.040*[#  13]+0.039*[#   1]+0.039*[#   9]+0.009*[#   8]+
          +0.009*[#  16]+0.007*[#   4]+0.007*[#  12]+
    |psi|^2 = 0.193
==== e(  12) =     7.01387 eV ==== 
     psi = 0.112*[#   1]+0.112*[#   9]+0.112*[#   5]+0.112*[#  13]+0.058*[#   4]+
          +0.058*[#  12]+0.056*[#   8]+0.056*[#  16]+
    |psi|^2 = 0.677
==== e(  13) =     7.26196 eV ==== 
     psi = 0.127*[#   1]+0.127*[#   9]+0.125*[#   5]+0.125*[#  13]+0.070*[#   8]+
          +0.070*[#  16]+0.070*[#   4]+0.070*[#  12]+
    |psi|^2 = 0.785
==== e(  14) =     7.37075 eV ==== 
     psi = 0.016*[#   4]+0.016*[#  12]+0.015*[#   8]+0.015*[#  16]+0.014*[#   1]+
          +0.014*[#   9]+0.014*[#   5]+0.014*[#  13]+0.002*[#   6]+0.002*[#  14]+
          +0.002*[#   2]+0.002*[#  10]+
    |psi|^2 = 0.124
==== e(  15) =     8.12486 eV ==== 
     psi = 0.003*[#   4]+0.003*[#   8]+0.003*[#  12]+0.003*[#  16]+0.001*[#   1]+
          +0.001*[#   5]+0.001*[#   9]+0.001*[#  13]+
    |psi|^2 = 0.018
==== e(  16) =     9.22817 eV ==== 
     psi = 0.002*[#   4]+0.002*[#   8]+0.002*[#  12]+0.002*[#  16]+
    |psi|^2 = 0.010

 k =   0.0000000000  0.4330127019  0.0000000000
==== e(   1) =   -16.81865 eV ==== 
     psi = 0.144*[#   5]+0.144*[#  13]+0.143*[#   1]+0.143*[#   9]+0.102*[#   4]+
          +0.102*[#  12]+0.101*[#   8]+0.101*[#  16]+
    |psi|^2 = 0.979
==== e(   2) =   -16.65569 eV ==== 
     psi = 0.148*[#   1]+0.148*[#   9]+0.147*[#   5]+0.147*[#  13]+0.100*[#   8]+
          +0.100*[#  16]+0.099*[#   4]+0.099*[#  12]+
    |psi|^2 = 0.986
==== e(   3) =   -11.24715 eV ==== 
     psi = 0.176*[#   4]+0.176*[#  12]+0.173*[#   8]+0.173*[#  16]+0.073*[#   5]+
          +0.073*[#  13]+0.072*[#   1]+0.072*[#   9]+
    |psi|^2 = 0.988
==== e(   4) =   -11.14440 eV ==== 
     psi = 0.176*[#  16]+0.176*[#   8]+0.172*[#  12]+0.172*[#   4]+0.074*[#   1]+
          +0.074*[#   9]+0.073*[#   5]+0.073*[#  13]+
    |psi|^2 = 0.989
==== e(   5) =    -6.59169 eV ==== 
     psi = 0.249*[#   7]+0.249*[#   3]+0.249*[#  15]+0.249*[#  11]+
    |psi|^2 = 0.996
==== e(   6) =    -6.55317 eV ==== 
     psi = 0.249*[#  15]+0.249*[#   7]+0.249*[#  11]+0.249*[#   3]+
    |psi|^2 = 0.996
==== e(   7) =    -4.87489 eV ==== 
     psi = 0.252*[#   6]+0.252*[#  14]+0.245*[#   2]+0.245*[#  10]+
    |psi|^2 = 0.995
==== e(   8) =    -3.93067 eV ==== 
     psi = 0.254*[#   2]+0.254*[#  10]+0.243*[#   6]+0.244*[#  14]+
    |psi|^2 = 0.996
==== e(   9) =     2.96974 eV ==== 
     psi = 0.239*[#   6]+0.239*[#  14]+0.229*[#   2]+0.229*[#  10]+
    |psi|^2 = 0.937
==== e(  10) =     3.57502 eV ==== 
     psi = 0.240*[#   2]+0.240*[#  10]+0.234*[#   6]+0.234*[#  14]+
    |psi|^2 = 0.949
==== e(  11) =     6.91669 eV ==== 
     psi = 0.147*[#   5]+0.147*[#  13]+0.144*[#   1]+0.144*[#   9]+0.062*[#   8]+
          +0.062*[#  16]+0.060*[#   4]+0.060*[#  12]+
    |psi|^2 = 0.830
==== e(  12) =     7.12811 eV ==== 
     psi = 0.135*[#   1]+0.135*[#   9]+0.131*[#   5]+0.131*[#  13]+0.051*[#   4]+
          +0.051*[#  12]+0.049*[#   8]+0.049*[#  16]+
    |psi|^2 = 0.732
==== e(  13) =     7.46141 eV ==== 
     psi = 0.025*[#   8]+0.025*[#  16]+0.025*[#   4]+0.025*[#  12]+0.023*[#   5]+
          +0.023*[#  13]+0.022*[#   1]+0.022*[#   9]+
    |psi|^2 = 0.192
==== e(  14) =     7.83462 eV ==== 
     psi = 0.005*[#   8]+0.005*[#  16]+0.005*[#   4]+0.005*[#  12]+0.002*[#   1]+
          +0.002*[#   5]+0.002*[#   9]+0.002*[#  13]+0.001*[#   2]+0.001*[#   6]+
          +0.001*[#  10]+0.001*[#  14]+
    |psi|^2 = 0.033
==== e(  15) =     8.61472 eV ==== 
     psi = 0.002*[#   4]+0.002*[#   8]+0.002*[#  12]+0.002*[#  16]+
    |psi|^2 = 0.010
==== e(  16) =     9.71260 eV ==== 
     psi = 0.001*[#   4]+0.001*[#   8]+0.001*[#  12]+0.001*[#  16]+
    |psi|^2 = 0.008

 k =   0.0000000000  0.4570689631  0.0000000000
==== e(   1) =   -16.45976 eV ==== 
     psi = 0.141*[#   5]+0.141*[#  13]+0.140*[#   1]+0.140*[#   9]+0.105*[#   4]+
          +0.105*[#  12]+0.104*[#   8]+0.104*[#  16]+
    |psi|^2 = 0.980
==== e(   2) =   -16.30144 eV ==== 
     psi = 0.144*[#   1]+0.145*[#   9]+0.144*[#   5]+0.144*[#  13]+0.103*[#   8]+
          +0.103*[#  16]+0.102*[#   4]+0.102*[#  12]+
    |psi|^2 = 0.986
==== e(   3) =   -11.76830 eV ==== 
     psi = 0.173*[#   4]+0.173*[#  12]+0.170*[#   8]+0.170*[#  16]+0.076*[#   5]+
          +0.075*[#  13]+0.074*[#   1]+0.074*[#   9]+
    |psi|^2 = 0.987
==== e(   4) =   -11.66077 eV ==== 
     psi = 0.172*[#  16]+0.172*[#   8]+0.169*[#  12]+0.169*[#   4]+0.077*[#   1]+
          +0.077*[#   9]+0.076*[#   5]+0.076*[#  13]+
    |psi|^2 = 0.989
==== e(   5) =    -6.70088 eV ==== 
     psi = 0.249*[#   7]+0.249*[#   3]+0.249*[#  15]+0.249*[#  11]+
    |psi|^2 = 0.996
==== e(   6) =    -6.66200 eV ==== 
     psi = 0.249*[#  15]+0.249*[#   7]+0.249*[#  11]+0.249*[#   3]+
    |psi|^2 = 0.996
==== e(   7) =    -4.49481 eV ==== 
     psi = 0.254*[#   6]+0.254*[#  14]+0.243*[#   2]+0.243*[#  10]+
    |psi|^2 = 0.996
==== e(   8) =    -3.60118 eV ==== 
     psi = 0.257*[#   2]+0.257*[#  10]+0.241*[#   6]+0.241*[#  14]+
    |psi|^2 = 0.997
==== e(   9) =     2.44535 eV ==== 
     psi = 0.242*[#   6]+0.242*[#  14]+0.227*[#   2]+0.227*[#  10]+
    |psi|^2 = 0.939
==== e(  10) =     3.05845 eV ==== 
     psi = 0.243*[#   2]+0.243*[#  10]+0.232*[#   6]+0.232*[#  14]+
    |psi|^2 = 0.950
==== e(  11) =     6.86821 eV ==== 
     psi = 0.156*[#   5]+0.156*[#  13]+0.153*[#   1]+0.153*[#   9]+0.062*[#   8]+
          +0.062*[#  16]+0.061*[#   4]+0.061*[#  12]+
    |psi|^2 = 0.865
==== e(  12) =     7.10566 eV ==== 
     psi = 0.156*[#   1]+0.156*[#   9]+0.152*[#   5]+0.152*[#  13]+0.059*[#   4]+
          +0.059*[#  12]+0.057*[#   8]+0.057*[#  16]+
    |psi|^2 = 0.850
==== e(  13) =     7.93045 eV ==== 
     psi = 0.010*[#   4]+0.010*[#   8]+0.010*[#  12]+0.010*[#  16]+0.004*[#   1]+
          +0.004*[#   5]+0.004*[#   9]+0.004*[#  13]+
    |psi|^2 = 0.054
==== e(  14) =     8.33700 eV ==== 
     psi = 0.003*[#   8]+0.003*[#  16]+0.003*[#   4]+0.003*[#  12]+0.001*[#   2]+
          +0.001*[#   6]+0.001*[#  10]+0.001*[#  14]+
    |psi|^2 = 0.020
==== e(  15) =     9.13369 eV ==== 
     psi = 0.001*[#   4]+0.001*[#   8]+0.001*[#  12]+0.001*[#  16]+
    |psi|^2 = 0.006
==== e(  16) =    10.22347 eV ==== 
     psi = 
    |psi|^2 = 0.006

 k =   0.0000000000  0.4811252243  0.0000000000
==== e(   1) =   -16.08720 eV ==== 
     psi = 0.139*[#   5]+0.139*[#  13]+0.138*[#   1]+0.137*[#   9]+0.108*[#   4]+
          +0.108*[#  12]+0.106*[#   8]+0.106*[#  16]+
    |psi|^2 = 0.982
==== e(   2) =   -15.93425 eV ==== 
     psi = 0.142*[#   1]+0.143*[#   9]+0.141*[#   5]+0.141*[#  13]+0.106*[#   8]+
          +0.106*[#  16]+0.104*[#   4]+0.104*[#  12]+
    |psi|^2 = 0.987
==== e(   3) =   -12.27417 eV ==== 
     psi = 0.171*[#   4]+0.171*[#  12]+0.168*[#   8]+0.168*[#  16]+0.077*[#   5]+
          +0.077*[#  13]+0.076*[#   1]+0.076*[#   9]+
    |psi|^2 = 0.986
==== e(   4) =   -12.16269 eV ==== 
     psi = 0.170*[#  16]+0.170*[#   8]+0.167*[#  12]+0.167*[#   4]+0.079*[#   1]+
          +0.079*[#   9]+0.078*[#   5]+0.078*[#  13]+
    |psi|^2 = 0.988
==== e(   5) =    -6.79092 eV ==== 
     psi = 0.249*[#   7]+0.249*[#   3]+0.249*[#  15]+0.249*[#  11]+
    |psi|^2 = 0.996
==== e(   6) =    -6.75174 eV ==== 
     psi = 0.249*[#  15]+0.249*[#   7]+0.249*[#  11]+0.249*[#   3]+
    |psi|^2 = 0.996
==== e(   7) =    -4.11884 eV ==== 
     psi = 0.257*[#   6]+0.257*[#  14]+0.241*[#   2]+0.241*[#  10]+
    |psi|^2 = 0.996
==== e(   8) =    -3.29208 eV ==== 
     psi = 0.261*[#   2]+0.261*[#  10]+0.238*[#   6]+0.238*[#  14]+
    |psi|^2 = 0.997
==== e(   9) =     1.96914 eV ==== 
     psi = 0.247*[#   6]+0.247*[#  14]+0.223*[#   2]+0.223*[#  10]+
    |psi|^2 = 0.941
==== e(  10) =     2.57322 eV ==== 
     psi = 0.246*[#   2]+0.246*[#  10]+0.229*[#   6]+0.229*[#  14]+
    |psi|^2 = 0.951
==== e(  11) =     6.82300 eV ==== 
     psi = 0.160*[#   5]+0.160*[#  13]+0.158*[#   1]+0.158*[#   9]+0.060*[#   8]+
          +0.060*[#  16]+0.059*[#   4]+0.059*[#  12]+
    |psi|^2 = 0.874
==== e(  12) =     7.07018 eV ==== 
     psi = 0.162*[#   1]+0.162*[#   9]+0.158*[#   5]+0.158*[#  13]+0.058*[#   4]+
          +0.058*[#  12]+0.057*[#   8]+0.057*[#  16]+
    |psi|^2 = 0.871
==== e(  13) =     8.44847 eV ==== 
     psi = 0.006*[#   4]+0.006*[#   8]+0.006*[#  12]+0.006*[#  16]+0.001*[#   1]+
          +0.001*[#   5]+0.001*[#   9]+0.001*[#  13]+
    |psi|^2 = 0.029
==== e(  14) =     8.86660 eV ==== 
     psi = 0.002*[#   4]+0.002*[#   8]+0.002*[#  12]+0.002*[#  16]+0.001*[#   2]+
          +0.001*[#   6]+0.001*[#  10]+0.001*[#  14]+
    |psi|^2 = 0.014
==== e(  15) =     9.68046 eV ==== 
     psi = 
    |psi|^2 = 0.004
==== e(  16) =    10.75989 eV ==== 
     psi = 
    |psi|^2 = 0.005

 k =   0.0000000000  0.5051814855  0.0000000000
==== e(   1) =   -15.70522 eV ==== 
     psi = 0.139*[#   5]+0.138*[#  13]+0.137*[#   1]+0.136*[#   9]+0.110*[#   4]+
          +0.110*[#  12]+0.107*[#   8]+0.107*[#  16]+
    |psi|^2 = 0.983
==== e(   2) =   -15.55899 eV ==== 
     psi = 0.142*[#   1]+0.142*[#   9]+0.140*[#   5]+0.140*[#  13]+0.107*[#   8]+
          +0.107*[#  16]+0.104*[#   4]+0.104*[#  12]+
    |psi|^2 = 0.988
==== e(   3) =   -12.75902 eV ==== 
     psi = 0.171*[#   4]+0.171*[#  12]+0.168*[#   8]+0.168*[#  16]+0.078*[#   5]+
          +0.078*[#  13]+0.076*[#   1]+0.076*[#   9]+
    |psi|^2 = 0.984
==== e(   4) =   -12.64528 eV ==== 
     psi = 0.169*[#  16]+0.169*[#   8]+0.166*[#  12]+0.166*[#   4]+0.080*[#   1]+
          +0.080*[#   9]+0.078*[#   5]+0.078*[#  13]+
    |psi|^2 = 0.987
==== e(   5) =    -6.86149 eV ==== 
     psi = 0.249*[#   7]+0.249*[#   3]+0.249*[#  15]+0.249*[#  11]+
    |psi|^2 = 0.996
==== e(   6) =    -6.82207 eV ==== 
     psi = 0.249*[#  15]+0.249*[#   7]+0.249*[#  11]+0.249*[#   3]+
    |psi|^2 = 0.996
==== e(   7) =    -3.76081 eV ==== 
     psi = 0.261*[#   6]+0.261*[#  14]+0.237*[#   2]+0.237*[#  10]+
    |psi|^2 = 0.997
==== e(   8) =    -3.02366 eV ==== 
     psi = 0.267*[#   2]+0.267*[#  10]+0.232*[#   6]+0.232*[#  14]+
    |psi|^2 = 0.997
==== e(   9) =     1.56303 eV ==== 
     psi = 0.254*[#   6]+0.254*[#  14]+0.217*[#   2]+0.217*[#  10]+
    |psi|^2 = 0.942
==== e(  10) =     2.13465 eV ==== 
     psi = 0.251*[#   2]+0.251*[#  10]+0.224*[#   6]+0.224*[#  14]+
    |psi|^2 = 0.952
==== e(  11) =     6.78624 eV ==== 
     psi = 0.164*[#   5]+0.164*[#  13]+0.161*[#   1]+0.161*[#   9]+0.058*[#   8]+
          +0.058*[#  16]+0.056*[#   4]+0.056*[#  12]+
    |psi|^2 = 0.878
==== e(  12) =     7.03944 eV ==== 
     psi = 0.166*[#   1]+0.166*[#   9]+0.162*[#   5]+0.162*[#  13]+0.057*[#   4]+
          +0.057*[#  12]+0.055*[#   8]+0.055*[#  16]+
    |psi|^2 = 0.879
==== e(  13) =     8.99449 eV ==== 
     psi = 0.004*[#   4]+0.004*[#   8]+0.004*[#  12]+0.004*[#  16]+
    |psi|^2 = 0.018
==== e(  14) =     9.42094 eV ==== 
     psi = 0.001*[#   4]+0.001*[#   8]+0.001*[#  12]+0.001*[#  16]+0.001*[#   2]+
          +0.001*[#   6]+0.001*[#  10]+0.001*[#  14]+
    |psi|^2 = 0.011
==== e(  15) =    10.25421 eV ==== 
     psi = 
    |psi|^2 = 0.003
==== e(  16) =    11.32021 eV ==== 
     psi = 
    |psi|^2 = 0.005

 k =   0.0000000000  0.5292377468  0.0000000000
==== e(   1) =   -15.32384 eV ==== 
     psi = 0.142*[#   5]+0.141*[#  13]+0.138*[#   1]+0.138*[#   9]+0.109*[#   4]+
          +0.109*[#  12]+0.104*[#   8]+0.104*[#  16]+
    |psi|^2 = 0.985
==== e(   2) =   -15.18809 eV ==== 
     psi = 0.146*[#   9]+0.146*[#   1]+0.142*[#  13]+0.142*[#   5]+0.106*[#   8]+
          +0.106*[#  16]+0.101*[#   4]+0.101*[#  12]+
    |psi|^2 = 0.990
==== e(   3) =   -13.20958 eV ==== 
     psi = 0.174*[#   4]+0.174*[#  12]+0.170*[#   8]+0.169*[#  16]+0.075*[#   5]+
          +0.075*[#  13]+0.072*[#   1]+0.072*[#   9]+
    |psi|^2 = 0.982
==== e(   4) =   -13.09795 eV ==== 
     psi = 0.172*[#  16]+0.172*[#   8]+0.167*[#  12]+0.167*[#   4]+0.079*[#   1]+
          +0.079*[#   9]+0.075*[#   5]+0.075*[#  13]+
    |psi|^2 = 0.985
==== e(   5) =    -6.91217 eV ==== 
     psi = 0.249*[#   7]+0.249*[#   3]+0.249*[#  15]+0.249*[#  11]+
    |psi|^2 = 0.996
==== e(   6) =    -6.87253 eV ==== 
     psi = 0.249*[#  15]+0.249*[#   7]+0.249*[#  11]+0.249*[#   3]+
    |psi|^2 = 0.996
==== e(   7) =    -3.44378 eV ==== 
     psi = 0.269*[#   6]+0.269*[#  14]+0.230*[#   2]+0.230*[#  10]+
    |psi|^2 = 0.997
==== e(   8) =    -2.82209 eV ==== 
     psi = 0.277*[#   2]+0.277*[#  10]+0.222*[#   6]+0.222*[#  14]+
    |psi|^2 = 0.998
==== e(   9) =     1.25497 eV ==== 
     psi = 0.264*[#   6]+0.264*[#  14]+0.207*[#   2]+0.207*[#  10]+
    |psi|^2 = 0.943
==== e(  10) =     1.76658 eV ==== 
     psi = 0.259*[#   2]+0.259*[#  10]+0.217*[#   6]+0.217*[#  14]+
    |psi|^2 = 0.952
==== e(  11) =     6.75938 eV ==== 
     psi = 0.166*[#   5]+0.166*[#  13]+0.163*[#   1]+0.163*[#   9]+0.056*[#   8]+
          +0.056*[#  16]+0.055*[#   4]+0.055*[#  12]+
    |psi|^2 = 0.879
==== e(  12) =     7.01650 eV ==== 
     psi = 0.168*[#   1]+0.168*[#   9]+0.165*[#   5]+0.165*[#  13]+0.055*[#   4]+
          +0.055*[#  12]+0.054*[#   8]+0.054*[#  16]+
    |psi|^2 = 0.883
==== e(  13) =     9.56414 eV ==== 
     psi = 0.003*[#   4]+0.003*[#   8]+0.003*[#  12]+0.003*[#  16]+
    |psi|^2 = 0.013
==== e(  14) =     9.99785 eV ==== 
     psi = 0.001*[#   2]+0.001*[#   6]+0.001*[#  10]+0.001*[#  14]+
    |psi|^2 = 0.010
==== e(  15) =    10.85373 eV ==== 
     psi = 
    |psi|^2 = 0.003
==== e(  16) =    11.89144 eV ==== 
     psi = 0.001*[#   5]+0.001*[#  13]+
    |psi|^2 = 0.009

 k =   0.0000000000  0.5532940080  0.0000000000
==== e(   1) =   -14.97565 eV ==== 
     psi = 0.152*[#   5]+0.152*[#  13]+0.144*[#   1]+0.144*[#   9]+0.105*[#   4]+
          +0.105*[#  12]+0.093*[#   8]+0.093*[#  16]+
    |psi|^2 = 0.989
==== e(   2) =   -14.86283 eV ==== 
     psi = 0.157*[#   9]+0.157*[#   1]+0.148*[#  13]+0.148*[#   5]+0.102*[#   8]+
          +0.102*[#  16]+0.088*[#   4]+0.088*[#  12]+
    |psi|^2 = 0.992
==== e(   3) =   -13.58336 eV ==== 
     psi = 0.186*[#   4]+0.186*[#  12]+0.175*[#   8]+0.175*[#  16]+0.069*[#   5]+
          +0.069*[#  13]+0.060*[#   1]+0.060*[#   9]+
    |psi|^2 = 0.979
==== e(   4) =   -13.48852 eV ==== 
     psi = 0.182*[#  16]+0.182*[#   8]+0.172*[#  12]+0.172*[#   4]+0.073*[#   1]+
          +0.073*[#   9]+0.065*[#   5]+0.065*[#  13]+
    |psi|^2 = 0.983
==== e(   5) =    -6.94270 eV ==== 
     psi = 0.249*[#   7]+0.249*[#   3]+0.249*[#  15]+0.249*[#  11]+
    |psi|^2 = 0.996
==== e(   6) =    -6.90290 eV ==== 
     psi = 0.249*[#  15]+0.249*[#   7]+0.249*[#  11]+0.249*[#   3]+
    |psi|^2 = 0.996
==== e(   7) =    -3.20744 eV ==== 
     psi = 0.280*[#   6]+0.280*[#  14]+0.219*[#   2]+0.219*[#  10]+
    |psi|^2 = 0.998
==== e(   8) =    -2.70921 eV ==== 
     psi = 0.290*[#   2]+0.290*[#  10]+0.209*[#   6]+0.209*[#  14]+
    |psi|^2 = 0.998
==== e(   9) =     1.06999 eV ==== 
     psi = 0.277*[#   6]+0.277*[#  14]+0.195*[#   2]+0.195*[#  10]+
    |psi|^2 = 0.943
==== e(  10) =     1.50708 eV ==== 
     psi = 0.269*[#   2]+0.269*[#  10]+0.207*[#   6]+0.207*[#  14]+
    |psi|^2 = 0.953
==== e(  11) =     6.74304 eV ==== 
     psi = 0.167*[#   5]+0.167*[#  13]+0.165*[#   1]+0.165*[#   9]+0.055*[#   8]+
          +0.055*[#  16]+0.054*[#   4]+0.054*[#  12]+
    |psi|^2 = 0.880
==== e(  12) =     7.00242 eV ==== 
     psi = 0.169*[#   1]+0.169*[#   9]+0.166*[#   5]+0.166*[#  13]+0.054*[#   4]+
          +0.054*[#  12]+0.053*[#   8]+0.053*[#  16]+
    |psi|^2 = 0.885
==== e(  13) =    10.15411 eV ==== 
     psi = 0.002*[#   4]+0.002*[#   8]+0.002*[#  12]+0.002*[#  16]+0.001*[#   1]+
    |psi|^2 = 0.012
==== e(  14) =    10.59328 eV ==== 
     psi = 0.001*[#   2]+0.001*[#   6]+0.001*[#  10]+0.001*[#  14]+
    |psi|^2 = 0.010
==== e(  15) =    11.38884 eV ==== 
     psi = 0.003*[#   5]+0.003*[#  13]+0.003*[#   1]+0.003*[#   9]+0.002*[#   8]+
          +0.002*[#  16]+0.002*[#   4]+0.002*[#  12]+
    |psi|^2 = 0.018
==== e(  16) =    11.47668 eV ==== 
     psi = 
    |psi|^2 = 0.005

 k =   0.0000000000 -0.5773502692  0.0000000000
==== e(   1) =   -14.79343 eV ==== 
     psi = 0.170*[#   5]+0.170*[#  13]+0.150*[#   1]+0.150*[#   9]+0.103*[#   4]+
          +0.103*[#  12]+0.073*[#   8]+0.073*[#  16]+
    |psi|^2 = 0.992
==== e(   2) =   -14.71681 eV ==== 
     psi = 0.172*[#   9]+0.172*[#   1]+0.150*[#  13]+0.149*[#   5]+0.104*[#  16]+
          +0.104*[#   8]+0.071*[#  12]+0.071*[#   4]+
    |psi|^2 = 0.993
==== e(   3) =   -13.74386 eV ==== 
     psi = 0.204*[#   4]+0.204*[#  12]+0.172*[#   8]+0.171*[#  16]+0.069*[#   5]+
          +0.069*[#  13]+0.044*[#   1]+0.044*[#   9]+
    |psi|^2 = 0.977
==== e(   4) =   -13.68667 eV ==== 
     psi = 0.203*[#  16]+0.202*[#   8]+0.174*[#  12]+0.173*[#   4]+0.068*[#   1]+
          +0.068*[#   9]+0.046*[#   5]+0.046*[#  13]+
    |psi|^2 = 0.980
==== e(   5) =    -6.95293 eV ==== 
     psi = 0.249*[#   7]+0.249*[#   3]+0.249*[#  15]+0.249*[#  11]+
    |psi|^2 = 0.996
==== e(   6) =    -6.91311 eV ==== 
     psi = 0.249*[#  15]+0.249*[#   7]+0.249*[#  11]+0.249*[#   3]+
    |psi|^2 = 0.996
==== e(   7) =    -3.11444 eV ==== 
     psi = 0.288*[#   6]+0.288*[#  14]+0.211*[#   2]+0.211*[#  10]+
    |psi|^2 = 0.998
==== e(   8) =    -2.67812 eV ==== 
     psi = 0.298*[#   2]+0.298*[#  10]+0.200*[#   6]+0.200*[#  14]+
    |psi|^2 = 0.998
==== e(   9) =     1.01141 eV ==== 
     psi = 0.284*[#   6]+0.284*[#  14]+0.188*[#   2]+0.188*[#  10]+
    |psi|^2 = 0.944
==== e(  10) =     1.40971 eV ==== 
     psi = 0.276*[#   2]+0.276*[#  10]+0.200*[#   6]+0.200*[#  14]+
    |psi|^2 = 0.953
==== e(  11) =     6.73756 eV ==== 
     psi = 0.168*[#   5]+0.168*[#  13]+0.165*[#   1]+0.165*[#   9]+0.054*[#   8]+
          +0.054*[#  16]+0.053*[#   4]+0.053*[#  12]+
    |psi|^2 = 0.881
==== e(  12) =     6.99768 eV ==== 
     psi = 0.170*[#   1]+0.170*[#   9]+0.167*[#   5]+0.167*[#  13]+0.054*[#   4]+
          +0.054*[#  12]+0.053*[#   8]+0.053*[#  16]+
    |psi|^2 = 0.886
==== e(  13) =    10.72090 eV ==== 
     psi = 0.003*[#   5]+0.003*[#  13]+0.002*[#   1]+0.002*[#   8]+0.002*[#   9]+
          +0.002*[#  16]+
    |psi|^2 = 0.014
==== e(  14) =    10.80127 eV ==== 
     psi = 0.003*[#   4]+0.003*[#  12]+0.002*[#   1]+0.002*[#   9]+0.001*[#   8]+
          +0.001*[#  16]+
    |psi|^2 = 0.013
==== e(  15) =    11.17705 eV ==== 
     psi = 0.002*[#   2]+0.002*[#   6]+0.002*[#  10]+0.002*[#  14]+0.001*[#   4]+
          +0.001*[#  12]+
    |psi|^2 = 0.015
==== e(  16) =    11.24746 eV ==== 
     psi = 0.001*[#   2]+0.001*[#  10]+
    |psi|^2 = 0.008

 k =   0.0208333333  0.0360843918  0.0000000000
==== e(   1) =   -20.04926 eV ==== 
     psi = 0.241*[#   5]+0.241*[#   1]+0.241*[#  13]+0.241*[#   9]+0.002*[#   4]+
          +0.002*[#   8]+0.002*[#  12]+0.002*[#  16]+
    |psi|^2 = 0.979
==== e(   2) =   -19.84809 eV ==== 
     psi = 0.243*[#   9]+0.243*[#  13]+0.243*[#   1]+0.243*[#   5]+0.002*[#   4]+
          +0.002*[#   8]+0.002*[#  12]+0.002*[#  16]+
    |psi|^2 = 0.987
==== e(   3) =    -8.63280 eV ==== 
     psi = 0.238*[#   6]+0.238*[#  14]+0.237*[#   2]+0.237*[#  10]+
    |psi|^2 = 0.954
==== e(   4) =    -7.46354 eV ==== 
     psi = 0.241*[#   2]+0.241*[#  10]+0.240*[#   6]+0.240*[#  14]+0.001*[#   1]+
    |psi|^2 = 0.965
==== e(   5) =    -3.70449 eV ==== 
     psi = 0.189*[#   8]+0.189*[#  16]+0.186*[#   4]+0.185*[#  12]+0.061*[#   3]+
          +0.061*[#  11]+0.060*[#   7]+0.060*[#  15]+0.002*[#   1]+0.002*[#   5]+
          +0.002*[#   9]+0.002*[#  13]+
    |psi|^2 = 0.997
==== e(   6) =    -3.69032 eV ==== 
     psi = 0.189*[#  12]+0.188*[#   4]+0.185*[#  16]+0.184*[#   8]+0.063*[#  15]+
          +0.063*[#   7]+0.060*[#  11]+0.060*[#   3]+0.002*[#   1]+0.002*[#   5]+
          +0.002*[#   9]+0.002*[#  13]+
    |psi|^2 = 0.997
==== e(   7) =    -3.64467 eV ==== 
     psi = 0.189*[#   3]+0.188*[#  11]+0.187*[#   7]+0.187*[#  15]+0.063*[#   8]+
          +0.063*[#  16]+0.060*[#   4]+0.060*[#  12]+
    |psi|^2 = 0.997
==== e(   8) =    -3.63109 eV ==== 
     psi = 0.189*[#  15]+0.189*[#   7]+0.188*[#  11]+0.188*[#   3]+0.062*[#  12]+
          +0.062*[#   4]+0.060*[#  16]+0.060*[#   8]+
    |psi|^2 = 0.997
==== e(   9) =     2.99050 eV ==== 
     psi = 0.002*[#   1]+0.002*[#   2]+0.002*[#   5]+0.002*[#   9]+0.002*[#  10]+
          +0.002*[#  13]+0.002*[#   6]+0.002*[#  14]+
    |psi|^2 = 0.017
==== e(  10) =     3.35662 eV ==== 
     psi = 0.005*[#   6]+0.005*[#  14]+0.005*[#   2]+0.005*[#  10]+
    |psi|^2 = 0.022
==== e(  11) =     4.07643 eV ==== 
     psi = 
    |psi|^2 = 0.003
==== e(  12) =     5.22124 eV ==== 
     psi = 0.002*[#   6]+0.002*[#  14]+0.002*[#   2]+0.002*[#  10]+
    |psi|^2 = 0.008
==== e(  13) =     5.79316 eV ==== 
     psi = 0.001*[#   1]+0.001*[#   5]+0.001*[#   9]+0.001*[#  13]+
    |psi|^2 = 0.009
==== e(  14) =     7.72484 eV ==== 
     psi = 0.032*[#   4]+0.032*[#  12]+0.032*[#   8]+0.032*[#  16]+0.011*[#   3]+
          +0.011*[#  11]+0.011*[#   7]+0.011*[#  15]+0.004*[#   6]+0.004*[#  14]+
          +0.004*[#   2]+0.004*[#  10]+0.002*[#   1]+0.002*[#   5]+0.002*[#   9]+
          +0.002*[#  13]+
    |psi|^2 = 0.194
==== e(  15) =     7.76099 eV ==== 
     psi = 0.171*[#   8]+0.171*[#   4]+0.171*[#  16]+0.171*[#  12]+0.061*[#   7]+
          +0.061*[#  15]+0.060*[#   3]+0.060*[#  11]+0.003*[#   1]+0.003*[#   9]+
          +0.003*[#   5]+0.003*[#  13]+
    |psi|^2 = 0.936
==== e(  16) =     7.82346 eV ==== 
     psi = 0.141*[#  16]+0.141*[#   8]+0.141*[#  12]+0.141*[#   4]+0.051*[#   3]+
          +0.051*[#  11]+0.049*[#   7]+0.049*[#  15]+0.002*[#   5]+0.002*[#  13]+
          +0.001*[#   1]+0.001*[#   9]+0.001*[#   2]+0.001*[#  10]+
    |psi|^2 = 0.775

 k =   0.0208333333  0.0601406530  0.0000000000
==== e(   1) =   -20.00811 eV ==== 
     psi = 0.238*[#   5]+0.238*[#   1]+0.238*[#  13]+0.237*[#   9]+0.006*[#   4]+
          +0.006*[#   8]+0.006*[#  12]+0.006*[#  16]+
    |psi|^2 = 0.979
==== e(   2) =   -19.80743 eV ==== 
     psi = 0.240*[#   9]+0.240*[#  13]+0.240*[#   1]+0.240*[#   5]+0.005*[#   4]+
          +0.005*[#   8]+0.005*[#  12]+0.005*[#  16]+
    |psi|^2 = 0.987
==== e(   3) =    -8.58315 eV ==== 
     psi = 0.238*[#   6]+0.238*[#  14]+0.238*[#   2]+0.238*[#  10]+
    |psi|^2 = 0.955
==== e(   4) =    -7.41571 eV ==== 
     psi = 0.241*[#   2]+0.241*[#  10]+0.240*[#   6]+0.240*[#  14]+
    |psi|^2 = 0.966
==== e(   5) =    -3.86863 eV ==== 
     psi = 0.223*[#   8]+0.223*[#  16]+0.221*[#   4]+0.220*[#  12]+0.024*[#   3]+
          +0.024*[#  11]+0.023*[#   7]+0.023*[#  15]+0.004*[#   5]+0.004*[#  13]+
          +0.004*[#   1]+0.004*[#   9]+
    |psi|^2 = 0.997
==== e(   6) =    -3.85225 eV ==== 
     psi = 0.219*[#  12]+0.219*[#   4]+0.217*[#  16]+0.217*[#   8]+0.028*[#   7]+
          +0.028*[#  15]+0.027*[#   3]+0.027*[#  11]+0.004*[#   1]+0.004*[#   5]+
          +0.004*[#   9]+0.004*[#  13]+
    |psi|^2 = 0.997
==== e(   7) =    -3.73327 eV ==== 
     psi = 0.222*[#   3]+0.222*[#   7]+0.221*[#  11]+0.221*[#  15]+0.029*[#   8]+
          +0.029*[#  16]+0.027*[#   4]+0.027*[#  12]+
    |psi|^2 = 0.997
==== e(   8) =    -3.71822 eV ==== 
     psi = 0.226*[#  15]+0.225*[#   7]+0.225*[#  11]+0.225*[#   3]+0.025*[#   4]+
          +0.025*[#  12]+0.023*[#   8]+0.024*[#  16]+
    |psi|^2 = 0.997
==== e(   9) =     3.04580 eV ==== 
     psi = 0.002*[#   4]+0.002*[#   8]+0.002*[#  12]+0.002*[#  16]+0.002*[#   2]+
          +0.002*[#  10]+0.001*[#   5]+0.002*[#   6]+0.001*[#   1]+0.001*[#  13]+
          +0.002*[#  14]+0.001*[#   9]+
    |psi|^2 = 0.020
==== e(  10) =     3.41242 eV ==== 
     psi = 0.005*[#   6]+0.005*[#  14]+0.005*[#   2]+0.005*[#  10]+
    |psi|^2 = 0.022
==== e(  11) =     4.13292 eV ==== 
     psi = 
    |psi|^2 = 0.003
==== e(  12) =     5.27722 eV ==== 
     psi = 0.002*[#   6]+0.002*[#  14]+0.002*[#   2]+0.002*[#  10]+
    |psi|^2 = 0.008
==== e(  13) =     5.84630 eV ==== 
     psi = 0.001*[#   1]+0.001*[#   5]+0.001*[#   9]+0.001*[#  13]+
    |psi|^2 = 0.009
==== e(  14) =     7.75210 eV ==== 
     psi = 0.066*[#   4]+0.066*[#  12]+0.066*[#   8]+0.066*[#  16]+0.008*[#   3]+
          +0.008*[#  11]+0.008*[#   7]+0.008*[#  15]+0.004*[#   5]+0.004*[#  13]+
          +0.004*[#   1]+0.004*[#   9]+0.004*[#   6]+0.004*[#  14]+0.003*[#   2]+
          +0.003*[#  10]+
    |psi|^2 = 0.324
==== e(  15) =     7.78193 eV ==== 
     psi = 0.200*[#   8]+0.200*[#  16]+0.199*[#   4]+0.199*[#  12]+0.023*[#   7]+
          +0.023*[#  15]+0.023*[#   3]+0.023*[#  11]+0.007*[#   1]+0.007*[#   9]+
          +0.006*[#   5]+0.006*[#  13]+
    |psi|^2 = 0.917
==== e(  16) =     7.87656 eV ==== 
     psi = 0.140*[#  12]+0.140*[#   4]+0.140*[#  16]+0.140*[#   8]+0.016*[#   3]+
          +0.016*[#  11]+0.016*[#   7]+0.016*[#  15]+0.004*[#   5]+0.004*[#  13]+
          +0.003*[#   1]+0.003*[#   9]+0.002*[#   2]+0.002*[#  10]+0.001*[#   6]+
          +0.001*[#  14]+
    |psi|^2 = 0.643

 k =   0.0208333333  0.0841969143  0.0000000000
==== e(   1) =   -19.94641 eV ==== 
     psi = 0.233*[#   5]+0.232*[#   1]+0.232*[#  13]+0.232*[#   9]+0.011*[#   4]+
          +0.011*[#   8]+0.011*[#  12]+0.011*[#  16]+
    |psi|^2 = 0.979
==== e(   2) =   -19.74647 eV ==== 
     psi = 0.236*[#   9]+0.235*[#   1]+0.235*[#  13]+0.235*[#   5]+0.010*[#   4]+
          +0.010*[#   8]+0.010*[#  12]+0.010*[#  16]+
    |psi|^2 = 0.987
==== e(   3) =    -8.50876 eV ==== 
     psi = 0.239*[#   6]+0.239*[#  14]+0.238*[#   2]+0.238*[#  10]+
    |psi|^2 = 0.956
==== e(   4) =    -7.34402 eV ==== 
     psi = 0.242*[#   2]+0.242*[#  10]+0.241*[#   6]+0.241*[#  14]+
    |psi|^2 = 0.968
==== e(   5) =    -4.10736 eV ==== 
     psi = 0.232*[#   8]+0.231*[#  16]+0.230*[#   4]+0.230*[#  12]+0.012*[#   3]+
          +0.012*[#  11]+0.011*[#   7]+0.011*[#  15]+0.007*[#   5]+0.007*[#  13]+
          +0.007*[#   1]+0.007*[#   9]+
    |psi|^2 = 0.997
==== e(   6) =    -4.08704 eV ==== 
     psi = 0.229*[#  12]+0.229*[#   4]+0.228*[#  16]+0.228*[#   8]+0.014*[#   7]+
          +0.014*[#  15]+0.013*[#   3]+0.013*[#  11]+0.007*[#   1]+0.007*[#   9]+
          +0.007*[#   5]+0.007*[#  13]+
    |psi|^2 = 0.997
==== e(   7) =    -3.86077 eV ==== 
     psi = 0.235*[#   7]+0.235*[#   3]+0.235*[#  15]+0.235*[#  11]+0.015*[#   8]+
          +0.015*[#  16]+0.014*[#   4]+0.014*[#  12]+
    |psi|^2 = 0.997
==== e(   8) =    -3.84312 eV ==== 
     psi = 0.238*[#  15]+0.237*[#  11]+0.237*[#   7]+0.237*[#   3]+0.012*[#   4]+
          +0.012*[#  12]+0.012*[#   8]+0.012*[#  16]+
    |psi|^2 = 0.997
==== e(   9) =     3.12876 eV ==== 
     psi = 0.003*[#   4]+0.003*[#   8]+0.003*[#  12]+0.003*[#  16]+0.002*[#   2]+
          +0.002*[#  10]+0.002*[#   6]+0.002*[#  14]+0.001*[#   1]+0.001*[#   5]+
          +0.001*[#   9]+0.001*[#  13]+
    |psi|^2 = 0.024
==== e(  10) =     3.49611 eV ==== 
     psi = 0.005*[#   6]+0.005*[#  14]+0.004*[#   2]+0.004*[#  10]+
    |psi|^2 = 0.023
==== e(  11) =     4.21766 eV ==== 
     psi = 
    |psi|^2 = 0.004
==== e(  12) =     5.36118 eV ==== 
     psi = 0.002*[#   6]+0.002*[#  14]+0.002*[#   2]+0.002*[#  10]+
    |psi|^2 = 0.008
==== e(  13) =     5.92602 eV ==== 
     psi = 0.001*[#   1]+0.001*[#   5]+0.001*[#   9]+0.001*[#  13]+
    |psi|^2 = 0.009
==== e(  14) =     7.78948 eV ==== 
     psi = 0.111*[#   4]+0.111*[#  12]+0.109*[#   8]+0.109*[#  16]+0.010*[#   5]+
          +0.010*[#  13]+0.009*[#   1]+0.009*[#   9]+0.006*[#   3]+0.006*[#   7]+
          +0.006*[#  11]+0.006*[#  15]+0.003*[#   6]+0.003*[#  14]+0.002*[#   2]+
          +0.002*[#  10]+
    |psi|^2 = 0.508
==== e(  15) =     7.80673 eV ==== 
     psi = 0.194*[#   8]+0.194*[#  16]+0.192*[#   4]+0.191*[#  12]+0.012*[#   1]+
          +0.012*[#   9]+0.010*[#   5]+0.010*[#   7]+0.010*[#  13]+0.010*[#  15]+
          +0.010*[#   3]+0.010*[#  11]+
    |psi|^2 = 0.859
==== e(  16) =     7.94871 eV ==== 
     psi = 0.112*[#   4]+0.112*[#  12]+0.111*[#   8]+0.111*[#  16]+0.006*[#   3]+
          +0.006*[#  11]+0.005*[#   7]+0.005*[#  15]+0.005*[#   5]+0.005*[#  13]+
          +0.004*[#   1]+0.004*[#   9]+0.003*[#   2]+0.003*[#  10]+0.002*[#   6]+
          +0.002*[#  14]+
    |psi|^2 = 0.496

 k =   0.0208333333  0.1082531755  0.0000000000
==== e(   1) =   -19.86422 eV ==== 
     psi = 0.226*[#   5]+0.226*[#   1]+0.226*[#  13]+0.226*[#   9]+0.017*[#   4]+
          +0.017*[#   8]+0.017*[#  12]+0.017*[#  16]+
    |psi|^2 = 0.979
==== e(   2) =   -19.66525 eV ==== 
     psi = 0.230*[#   9]+0.230*[#   1]+0.230*[#  13]+0.230*[#   5]+0.016*[#   4]+
          +0.016*[#   8]+0.016*[#  12]+0.016*[#  16]+
    |psi|^2 = 0.986
==== e(   3) =    -8.40975 eV ==== 
     psi = 0.239*[#   6]+0.239*[#  14]+0.238*[#   2]+0.238*[#  10]+
    |psi|^2 = 0.958
==== e(   4) =    -7.24867 eV ==== 
     psi = 0.242*[#   2]+0.242*[#  10]+0.241*[#   6]+0.241*[#  14]+
    |psi|^2 = 0.970
==== e(   5) =    -4.41271 eV ==== 
     psi = 0.232*[#   8]+0.232*[#   4]+0.232*[#  16]+0.232*[#  12]+0.011*[#   5]+
          +0.011*[#  13]+0.011*[#   1]+0.011*[#   9]+0.007*[#   3]+0.006*[#  11]+
          +0.006*[#   7]+0.006*[#  15]+
    |psi|^2 = 0.997
==== e(   6) =    -4.38763 eV ==== 
     psi = 0.231*[#  16]+0.231*[#  12]+0.231*[#   8]+0.231*[#   4]+0.011*[#   1]+
          +0.011*[#   9]+0.011*[#   5]+0.011*[#  13]+0.008*[#   7]+0.008*[#  15]+
          +0.007*[#   3]+0.007*[#  11]+
    |psi|^2 = 0.997
==== e(   7) =    -4.02061 eV ==== 
     psi = 0.242*[#   7]+0.241*[#  15]+0.241*[#   3]+0.241*[#  11]+0.008*[#   8]+
          +0.008*[#  16]+0.008*[#   4]+0.008*[#  12]+
    |psi|^2 = 0.997
==== e(   8) =    -4.00009 eV ==== 
     psi = 0.243*[#  15]+0.243*[#  11]+0.242*[#   7]+0.242*[#   3]+0.007*[#   4]+
          +0.007*[#  12]+0.006*[#   8]+0.006*[#  16]+
    |psi|^2 = 0.997
==== e(   9) =     3.23937 eV ==== 
     psi = 0.005*[#   4]+0.005*[#   8]+0.005*[#  12]+0.005*[#  16]+0.002*[#   2]+
          +0.002*[#  10]+0.001*[#   6]+0.001*[#  14]+
    |psi|^2 = 0.028
==== e(  10) =     3.60764 eV ==== 
     psi = 0.004*[#   6]+0.004*[#  14]+0.004*[#   2]+0.004*[#  10]+0.001*[#   4]+
          +0.001*[#   8]+0.001*[#  12]+0.001*[#  16]+
    |psi|^2 = 0.023
==== e(  11) =     4.33065 eV ==== 
     psi = 
    |psi|^2 = 0.005
==== e(  12) =     5.47311 eV ==== 
     psi = 0.002*[#   6]+0.002*[#  14]+0.001*[#   2]+0.001*[#  10]+
    |psi|^2 = 0.008
==== e(  13) =     6.03227 eV ==== 
[...]
    |psi|^2 = 0.990
==== e(  11) =    10.13133 eV ==== 
     psi = 0.009*[#   1]+0.009*[#   9]+0.002*[#   7]+0.002*[#  15]+0.002*[#   8]+
          +0.002*[#  16]+
    |psi|^2 = 0.025
==== e(  12) =    10.23825 eV ==== 
     psi = 0.008*[#   1]+0.008*[#   9]+0.002*[#   7]+0.002*[#  15]+0.002*[#   8]+
          +0.002*[#  16]+0.001*[#   2]+0.001*[#  10]+
    |psi|^2 = 0.027
==== e(  13) =    11.70129 eV ==== 
     psi = 0.043*[#   5]+0.043*[#  13]+0.015*[#   3]+0.015*[#  11]+0.011*[#   4]+
          +0.011*[#  12]+0.007*[#   1]+0.007*[#   9]+0.002*[#   7]+0.002*[#  15]+
          +0.002*[#   8]+0.002*[#  16]+
    |psi|^2 = 0.159
==== e(  14) =    12.17036 eV ==== 
     psi = 0.080*[#   5]+0.080*[#  13]+0.056*[#   1]+0.056*[#   9]+0.029*[#   3]+
          +0.029*[#  11]+0.028*[#   4]+0.028*[#  12]+0.026*[#   7]+0.026*[#  15]+
          +0.011*[#   8]+0.011*[#  16]+
    |psi|^2 = 0.460
==== e(  15) =    12.42733 eV ==== 
     psi = 0.081*[#   1]+0.081*[#   9]+0.038*[#   8]+0.038*[#  16]+0.025*[#   7]+
          +0.025*[#  15]+0.003*[#   5]+0.003*[#  13]+0.003*[#   4]+0.003*[#  12]+
    |psi|^2 = 0.300
==== e(  16) =    12.80531 eV ==== 
     psi = 0.067*[#   5]+0.067*[#  13]+0.026*[#   3]+0.026*[#  11]+0.023*[#   4]+
          +0.023*[#  12]+0.005*[#   1]+0.005*[#   9]+0.002*[#   7]+0.002*[#  15]+
          +0.002*[#   8]+0.002*[#  16]+
    |psi|^2 = 0.250

 k =   0.6250000000  0.0240562612  0.0000000000
==== e(   1) =   -13.69008 eV ==== 
     psi = 0.131*[#   5]+0.131*[#  13]+0.117*[#   1]+0.117*[#   9]+0.102*[#   3]+
          +0.102*[#  11]+0.091*[#   7]+0.091*[#  15]+0.030*[#   4]+0.029*[#  12]+
          +0.025*[#   8]+0.025*[#  16]+
    |psi|^2 = 0.990
==== e(   2) =   -13.58924 eV ==== 
     psi = 0.131*[#   9]+0.131*[#   1]+0.121*[#  13]+0.121*[#   5]+0.096*[#   7]+
          +0.096*[#  15]+0.087*[#   3]+0.087*[#  11]+0.032*[#   8]+0.032*[#  16]+
          +0.029*[#   4]+0.029*[#  12]+
    |psi|^2 = 0.993
==== e(   3) =   -12.72203 eV ==== 
     psi = 0.108*[#   1]+0.108*[#   9]+0.102*[#   5]+0.102*[#  13]+0.091*[#   7]+
          +0.091*[#  15]+0.078*[#   3]+0.078*[#  11]+0.061*[#   4]+0.061*[#  12]+
          +0.055*[#   8]+0.055*[#  16]+
    |psi|^2 = 0.991
==== e(   4) =   -12.66198 eV ==== 
     psi = 0.108*[#  13]+0.108*[#   5]+0.105*[#   9]+0.105*[#   1]+0.087*[#  11]+
          +0.086*[#   3]+0.077*[#  15]+0.077*[#   7]+0.063*[#   8]+0.063*[#  16]+
          +0.056*[#   4]+0.056*[#  12]+
    |psi|^2 = 0.993
==== e(   5) =   -10.81024 eV ==== 
     psi = 0.160*[#   4]+0.160*[#  12]+0.155*[#   8]+0.155*[#  16]+0.082*[#   7]+
          +0.082*[#  15]+0.078*[#   3]+0.078*[#  11]+0.009*[#   5]+0.009*[#  13]+
          +0.007*[#   1]+0.007*[#   9]+
    |psi|^2 = 0.983
==== e(   6) =   -10.76549 eV ==== 
     psi = 0.162*[#  16]+0.162*[#   8]+0.156*[#  12]+0.156*[#   4]+0.079*[#   3]+
          +0.079*[#  11]+0.075*[#   7]+0.075*[#  15]+0.011*[#   1]+0.011*[#   9]+
          +0.009*[#   5]+0.009*[#  13]+
    |psi|^2 = 0.984
==== e(   7) =    -1.47302 eV ==== 
     psi = 0.314*[#   6]+0.314*[#  14]+0.183*[#   2]+0.183*[#  10]+
    |psi|^2 = 0.994
==== e(   8) =    -0.95531 eV ==== 
     psi = 0.323*[#   2]+0.323*[#  10]+0.174*[#   6]+0.174*[#  14]+
    |psi|^2 = 0.995
==== e(   9) =     0.00477 eV ==== 
     psi = 0.309*[#   2]+0.309*[#  10]+0.186*[#   6]+0.186*[#  14]+
    |psi|^2 = 0.990
==== e(  10) =     0.35065 eV ==== 
     psi = 0.318*[#   6]+0.318*[#  14]+0.177*[#   2]+0.177*[#  10]+
    |psi|^2 = 0.990
==== e(  11) =    10.13135 eV ==== 
     psi = 0.009*[#   1]+0.009*[#   9]+0.002*[#   8]+0.002*[#  16]+0.002*[#   7]+
          +0.002*[#  15]+
    |psi|^2 = 0.025
==== e(  12) =    10.23808 eV ==== 
     psi = 0.008*[#   1]+0.008*[#   9]+0.002*[#   8]+0.002*[#  16]+0.002*[#   7]+
          +0.002*[#  15]+0.001*[#   2]+0.001*[#  10]+
    |psi|^2 = 0.027
==== e(  13) =    11.70120 eV ==== 
     psi = 0.043*[#   5]+0.043*[#  13]+0.016*[#   4]+0.016*[#  12]+0.009*[#   3]+
          +0.009*[#  11]+0.007*[#   1]+0.007*[#   9]+0.003*[#   8]+0.003*[#  16]+
    |psi|^2 = 0.160
==== e(  14) =    12.17076 eV ==== 
     psi = 0.080*[#   5]+0.080*[#  13]+0.056*[#   1]+0.056*[#   9]+0.034*[#   3]+
          +0.034*[#  11]+0.023*[#   4]+0.023*[#  12]+0.022*[#   8]+0.022*[#  16]+
          +0.015*[#   7]+0.015*[#  15]+
    |psi|^2 = 0.460
==== e(  15) =    12.42709 eV ==== 
     psi = 0.081*[#   1]+0.081*[#   9]+0.039*[#   7]+0.039*[#  15]+0.023*[#   8]+
          +0.023*[#  16]+0.003*[#   5]+0.003*[#  13]+0.002*[#   4]+0.002*[#  12]+
          +0.001*[#   3]+0.001*[#  11]+
    |psi|^2 = 0.300
==== e(  16) =    12.80521 eV ==== 
     psi = 0.067*[#   5]+0.067*[#  13]+0.025*[#   4]+0.025*[#  12]+0.024*[#   3]+
          +0.024*[#  11]+0.005*[#   1]+0.005*[#   9]+0.002*[#   7]+0.002*[#  15]+
          +0.001*[#   8]+0.001*[#  16]+
    |psi|^2 = 0.251

 k =  -0.3541666667  0.5412658774  0.0000000000
==== e(   1) =   -13.50419 eV ==== 
     psi = 0.144*[#   5]+0.144*[#  13]+0.111*[#   1]+0.111*[#   9]+0.077*[#   3]+
          +0.077*[#  11]+0.062*[#   4]+0.062*[#  12]+0.052*[#   7]+0.052*[#  15]+
          +0.050*[#   8]+0.050*[#  16]+
    |psi|^2 = 0.992
==== e(   2) =   -13.43537 eV ==== 
     psi = 0.143*[#   9]+0.143*[#   1]+0.113*[#  13]+0.113*[#   5]+0.076*[#   7]+
          +0.076*[#  15]+0.061*[#   8]+0.061*[#  16]+0.053*[#   3]+0.053*[#  11]+
          +0.050*[#   4]+0.051*[#  12]+
    |psi|^2 = 0.993
==== e(   3) =   -12.85084 eV ==== 
     psi = 0.123*[#   1]+0.121*[#   9]+0.109*[#   7]+0.107*[#  15]+0.087*[#   5]+
          +0.086*[#  13]+0.085*[#   3]+0.084*[#  11]+0.055*[#   8]+0.054*[#  16]+
          +0.040*[#   4]+0.040*[#  12]+
    |psi|^2 = 0.992
==== e(   4) =   -12.84542 eV ==== 
     psi = 0.119*[#  13]+0.118*[#   5]+0.112*[#  11]+0.110*[#   3]+0.090*[#  15]+
          +0.089*[#   7]+0.086*[#   9]+0.085*[#   1]+0.052*[#  12]+0.052*[#   4]+
          +0.040*[#  16]+0.039*[#   8]+
    |psi|^2 = 0.991
==== e(   5) =   -10.84679 eV ==== 
     psi = 0.147*[#   4]+0.146*[#  12]+0.144*[#   8]+0.144*[#  16]+0.093*[#   7]+
          +0.093*[#  15]+0.092*[#   3]+0.092*[#  11]+0.008*[#   5]+0.008*[#  13]+
          +0.007*[#   1]+0.007*[#   9]+
    |psi|^2 = 0.983
==== e(   6) =   -10.79971 eV ==== 
     psi = 0.149*[#  16]+0.149*[#   8]+0.146*[#  12]+0.146*[#   4]+0.089*[#   3]+
          +0.089*[#  11]+0.088*[#   7]+0.088*[#  15]+0.011*[#   1]+0.011*[#   9]+
          +0.009*[#   5]+0.009*[#  13]+
    |psi|^2 = 0.984
==== e(   7) =    -1.31666 eV ==== 
     psi = 0.346*[#   6]+0.346*[#  14]+0.151*[#   2]+0.151*[#  10]+
    |psi|^2 = 0.995
==== e(   8) =    -0.89835 eV ==== 
     psi = 0.359*[#   2]+0.359*[#  10]+0.138*[#   6]+0.138*[#  14]+
    |psi|^2 = 0.994
==== e(   9) =    -0.06012 eV ==== 
     psi = 0.345*[#   2]+0.345*[#  10]+0.150*[#   6]+0.150*[#  14]+
    |psi|^2 = 0.991
==== e(  10) =     0.20165 eV ==== 
     psi = 0.358*[#   6]+0.358*[#  14]+0.137*[#   2]+0.137*[#  10]+
    |psi|^2 = 0.989
==== e(  11) =    10.12704 eV ==== 
     psi = 0.008*[#   1]+0.008*[#   9]+0.002*[#   8]+0.002*[#  16]+0.002*[#   7]+
          +0.002*[#  15]+
    |psi|^2 = 0.025
==== e(  12) =    10.21454 eV ==== 
     psi = 0.008*[#   1]+0.008*[#   9]+0.002*[#   7]+0.002*[#   8]+0.002*[#  15]+
          +0.002*[#  16]+0.001*[#   2]+0.001*[#  10]+
    |psi|^2 = 0.027
==== e(  13) =    11.92178 eV ==== 
     psi = 0.104*[#   5]+0.104*[#  13]+0.033*[#   4]+0.033*[#  12]+0.032*[#   3]+
          +0.032*[#  11]+0.002*[#   1]+0.002*[#   9]+
    |psi|^2 = 0.344
==== e(  14) =    12.22008 eV ==== 
     psi = 0.049*[#   1]+0.049*[#   9]+0.018*[#   8]+0.018*[#  16]+0.012*[#   7]+
          +0.012*[#  15]+
    |psi|^2 = 0.161
==== e(  15) =    12.28788 eV ==== 
     psi = 0.090*[#   1]+0.090*[#   9]+0.039*[#   7]+0.039*[#  15]+0.029*[#   8]+
          +0.029*[#  16]+0.016*[#   5]+0.016*[#  13]+0.010*[#   3]+0.010*[#  11]+
          +0.005*[#   4]+0.005*[#  12]+
    |psi|^2 = 0.375
==== e(  16) =    12.93472 eV ==== 
     psi = 0.116*[#   5]+0.116*[#  13]+0.045*[#   3]+0.045*[#  11]+0.042*[#   4]+
          +0.042*[#  12]+0.017*[#   1]+0.017*[#   9]+0.007*[#   7]+0.007*[#  15]+
          +0.005*[#   8]+0.005*[#  16]+
    |psi|^2 = 0.465

 k =   0.6250000000 -0.0000000000  0.0000000000
==== e(   1) =   -13.67928 eV ==== 
     psi = 0.128*[#   5]+0.128*[#  13]+0.116*[#   1]+0.116*[#   9]+0.105*[#   3]+
          +0.105*[#  11]+0.096*[#   7]+0.096*[#  15]+0.027*[#   4]+0.027*[#  12]+
          +0.023*[#   8]+0.023*[#  16]+
    |psi|^2 = 0.990
==== e(   2) =   -13.57268 eV ==== 
     psi = 0.128*[#   9]+0.128*[#   1]+0.120*[#  13]+0.120*[#   5]+0.099*[#   7]+
          +0.100*[#  15]+0.093*[#   3]+0.093*[#  11]+0.029*[#   8]+0.029*[#  16]+
          +0.026*[#   4]+0.026*[#  12]+
    |psi|^2 = 0.993
==== e(   3) =   -12.66565 eV ==== 
     psi = 0.117*[#   1]+0.116*[#   9]+0.107*[#   5]+0.107*[#  13]+0.085*[#   7]+
          +0.085*[#  15]+0.068*[#   3]+0.068*[#  11]+0.063*[#   4]+0.063*[#  12]+
          +0.057*[#   8]+0.057*[#  16]+
    |psi|^2 = 0.993
==== e(   4) =   -12.60335 eV ==== 
     psi = 0.116*[#  13]+0.115*[#   5]+0.109*[#   9]+0.109*[#   1]+0.084*[#  11]+
          +0.084*[#   3]+0.069*[#  15]+0.069*[#   7]+0.063*[#   8]+0.063*[#  16]+
          +0.056*[#   4]+0.056*[#  12]+
    |psi|^2 = 0.994
==== e(   5) =   -10.89234 eV ==== 
     psi = 0.163*[#   4]+0.163*[#  12]+0.153*[#   8]+0.153*[#  16]+0.087*[#   7]+
          +0.087*[#  15]+0.079*[#   3]+0.079*[#  11]+0.006*[#   5]+0.006*[#  13]+
          +0.003*[#   1]+0.003*[#   9]+
    |psi|^2 = 0.982
==== e(   6) =   -10.86332 eV ==== 
     psi = 0.166*[#  16]+0.166*[#   8]+0.156*[#  12]+0.156*[#   4]+0.083*[#  11]+
          +0.082*[#   3]+0.075*[#  15]+0.075*[#   7]+0.007*[#   1]+0.007*[#   9]+
          +0.005*[#   5]+0.005*[#  13]+
    |psi|^2 = 0.983
==== e(   7) =    -1.43284 eV ==== 
     psi = 0.312*[#   6]+0.312*[#  14]+0.185*[#   2]+0.185*[#  10]+
    |psi|^2 = 0.994
==== e(   8) =    -0.86954 eV ==== 
     psi = 0.320*[#   2]+0.320*[#  10]+0.178*[#   6]+0.178*[#  14]+
    |psi|^2 = 0.995
==== e(   9) =    -0.08413 eV ==== 
     psi = 0.311*[#   2]+0.311*[#  10]+0.184*[#   6]+0.184*[#  14]+
    |psi|^2 = 0.990
==== e(  10) =     0.32838 eV ==== 
     psi = 0.318*[#   6]+0.318*[#  14]+0.177*[#   2]+0.177*[#  10]+
    |psi|^2 = 0.991
==== e(  11) =    10.11042 eV ==== 
     psi = 0.008*[#   1]+0.008*[#   9]+0.002*[#   8]+0.002*[#  16]+0.002*[#   7]+
          +0.002*[#  15]+
    |psi|^2 = 0.023
==== e(  12) =    10.20449 eV ==== 
     psi = 0.008*[#   1]+0.008*[#   9]+0.002*[#   8]+0.002*[#  16]+0.002*[#   7]+
          +0.002*[#  15]+
    |psi|^2 = 0.025
==== e(  13) =    11.69565 eV ==== 
     psi = 0.037*[#   5]+0.037*[#  13]+0.014*[#   4]+0.014*[#  12]+0.008*[#   1]+
          +0.008*[#   9]+0.007*[#   3]+0.007*[#  11]+0.004*[#   8]+0.004*[#  16]+
    |psi|^2 = 0.142
==== e(  14) =    12.28024 eV ==== 
     psi = 0.088*[#   5]+0.088*[#  13]+0.039*[#   1]+0.039*[#   9]+0.036*[#   3]+
          +0.036*[#  11]+0.026*[#   4]+0.026*[#  12]+0.017*[#   8]+0.017*[#  16]+
          +0.006*[#   7]+0.006*[#  15]+
    |psi|^2 = 0.423
==== e(  15) =    12.50075 eV ==== 
     psi = 0.098*[#   1]+0.098*[#   9]+0.048*[#   7]+0.048*[#  15]+0.029*[#   8]+
          +0.029*[#  16]+0.001*[#   4]+0.001*[#  12]+0.001*[#   3]+0.001*[#  11]+
    |psi|^2 = 0.356
==== e(  16) =    12.84227 eV ==== 
     psi = 0.046*[#   5]+0.046*[#  13]+0.018*[#   4]+0.018*[#  12]+0.016*[#   3]+
          +0.016*[#  11]+
    |psi|^2 = 0.161

 k =  -0.3333333333  0.5532940080  0.0000000000
==== e(   1) =   -13.38356 eV ==== 
     psi = 0.139*[#   5]+0.139*[#  13]+0.107*[#   1]+0.107*[#   9]+0.082*[#   4]+
          +0.082*[#  12]+0.066*[#   8]+0.066*[#  16]+0.061*[#   3]+0.061*[#  11]+
          +0.042*[#   7]+0.042*[#  15]+
    |psi|^2 = 0.992
==== e(   2) =   -13.29897 eV ==== 
     psi = 0.137*[#   9]+0.137*[#   1]+0.111*[#  13]+0.111*[#   5]+0.076*[#   8]+
          +0.076*[#  16]+0.064*[#   4]+0.064*[#  12]+0.062*[#   7]+0.062*[#  15]+
          +0.045*[#   3]+0.045*[#  11]+
    |psi|^2 = 0.993
==== e(   3) =   -12.88619 eV ==== 
     psi = 0.128*[#   1]+0.128*[#   9]+0.100*[#   5]+0.100*[#  13]+0.085*[#   7]+
          +0.085*[#  15]+0.075*[#   3]+0.075*[#  11]+0.065*[#   8]+0.065*[#  16]+
          +0.044*[#   4]+0.044*[#  12]+
    |psi|^2 = 0.992
==== e(   4) =   -12.83231 eV ==== 
     psi = 0.126*[#  13]+0.126*[#   5]+0.103*[#   9]+0.103*[#   1]+0.085*[#  11]+
          +0.085*[#   3]+0.078*[#  15]+0.077*[#   7]+0.061*[#   4]+0.061*[#  12]+
          +0.045*[#   8]+0.045*[#  16]+
    |psi|^2 = 0.993
==== e(   5) =   -10.99199 eV ==== 
     psi = 0.124*[#   4]+0.124*[#   8]+0.124*[#  12]+0.124*[#  16]+0.120*[#   3]+
          +0.120*[#  11]+0.119*[#   7]+0.119*[#  15]+0.003*[#   5]+0.003*[#  13]+
          +0.001*[#   1]+0.001*[#   9]+
    |psi|^2 = 0.982
==== e(   6) =   -10.96756 eV ==== 
     psi = 0.126*[#  16]+0.126*[#   8]+0.126*[#  12]+0.126*[#   4]+0.117*[#  15]+
          +0.116*[#   7]+0.115*[#  11]+0.115*[#   3]+0.004*[#   1]+0.004*[#   9]+
          +0.003*[#   5]+0.003*[#  13]+
    |psi|^2 = 0.982
==== e(   7) =    -1.13606 eV ==== 
     psi = 0.373*[#   6]+0.373*[#  14]+0.124*[#   2]+0.124*[#  10]+
    |psi|^2 = 0.994
==== e(   8) =    -0.67656 eV ==== 
     psi = 0.385*[#   2]+0.385*[#  10]+0.112*[#   6]+0.112*[#  14]+
    |psi|^2 = 0.994
==== e(   9) =    -0.30842 eV ==== 
     psi = 0.371*[#   2]+0.371*[#  10]+0.125*[#   6]+0.125*[#  14]+
    |psi|^2 = 0.992
==== e(  10) =     0.06993 eV ==== 
     psi = 0.384*[#   6]+0.384*[#  14]+0.112*[#   2]+0.112*[#  10]+
    |psi|^2 = 0.992
==== e(  11) =    10.09561 eV ==== 
     psi = 0.008*[#   1]+0.008*[#   9]+0.002*[#   7]+0.002*[#   8]+0.002*[#  15]+
          +0.002*[#  16]+
    |psi|^2 = 0.022
==== e(  12) =    10.14639 eV ==== 
     psi = 0.007*[#   1]+0.007*[#   9]+0.002*[#   7]+0.002*[#   8]+0.002*[#  15]+
          +0.002*[#  16]+
    |psi|^2 = 0.023
==== e(  13) =    11.98525 eV ==== 
     psi = 0.087*[#   5]+0.087*[#  13]+0.029*[#   3]+0.029*[#  11]+0.026*[#   4]+
          +0.026*[#  12]+0.003*[#   1]+0.003*[#   9]+
    |psi|^2 = 0.293
==== e(  14) =    12.32559 eV ==== 
     psi = 0.053*[#   1]+0.053*[#   9]+0.026*[#   5]+0.026*[#  13]+0.020*[#   7]+
          +0.020*[#  15]+0.014*[#   8]+0.014*[#  16]+0.012*[#   4]+0.012*[#  12]+
          +0.007*[#   3]+0.007*[#  11]+
    |psi|^2 = 0.266
==== e(  15) =    12.47263 eV ==== 
     psi = 0.084*[#   1]+0.084*[#   9]+0.034*[#   8]+0.034*[#  16]+0.029*[#   7]+
          +0.029*[#  15]+0.003*[#   3]+0.003*[#  11]+0.002*[#   5]+0.002*[#  13]+
    |psi|^2 = 0.306
==== e(  16) =    13.11038 eV ==== 
     psi = 0.099*[#   5]+0.099*[#  13]+0.038*[#   3]+0.038*[#  11]+0.036*[#   4]+
          +0.036*[#  12]+0.002*[#   1]+0.002*[#   9]+
    |psi|^2 = 0.354

 k =   0.6458333333  0.0120281306  0.0000000000
==== e(   1) =   -13.38373 eV ==== 
     psi = 0.139*[#   5]+0.139*[#  13]+0.107*[#   1]+0.107*[#   9]+0.095*[#   3]+
          +0.095*[#  11]+0.073*[#   7]+0.073*[#  15]+0.048*[#   4]+0.048*[#  12]+
          +0.035*[#   8]+0.035*[#  16]+
    |psi|^2 = 0.992
==== e(   2) =   -13.29913 eV ==== 
     psi = 0.137*[#   9]+0.137*[#   1]+0.111*[#  13]+0.111*[#   5]+0.087*[#   7]+
          +0.087*[#  15]+0.069*[#   3]+0.069*[#  11]+0.051*[#   8]+0.052*[#  16]+
          +0.041*[#   4]+0.041*[#  12]+
    |psi|^2 = 0.993
==== e(   3) =   -12.88595 eV ==== 
     psi = 0.128*[#   1]+0.128*[#   9]+0.100*[#   5]+0.100*[#  13]+0.089*[#   7]+
          +0.089*[#  15]+0.062*[#   3]+0.062*[#  11]+0.061*[#   8]+0.061*[#  16]+
          +0.057*[#   4]+0.057*[#  12]+
    |psi|^2 = 0.992
==== e(   4) =   -12.83203 eV ==== 
     psi = 0.126*[#  13]+0.126*[#   5]+0.103*[#   9]+0.103*[#   1]+0.085*[#  11]+
          +0.085*[#   3]+0.063*[#  15]+0.063*[#   7]+0.061*[#  12]+0.061*[#   4]+
          +0.059*[#   8]+0.059*[#  16]+
    |psi|^2 = 0.993
==== e(   5) =   -10.99209 eV ==== 
     psi = 0.147*[#   4]+0.147*[#  12]+0.141*[#   8]+0.140*[#  16]+0.103*[#   7]+
          +0.102*[#  15]+0.097*[#   3]+0.097*[#  11]+0.003*[#   5]+0.003*[#  13]+
          +0.001*[#   1]+0.001*[#   9]+
    |psi|^2 = 0.982
==== e(   6) =   -10.96767 eV ==== 
     psi = 0.151*[#  16]+0.150*[#   8]+0.144*[#  12]+0.144*[#   4]+0.097*[#  11]+
          +0.097*[#   3]+0.092*[#  15]+0.092*[#   7]+0.004*[#   1]+0.004*[#   9]+
          +0.003*[#   5]+0.003*[#  13]+
    |psi|^2 = 0.982
==== e(   7) =    -1.13631 eV ==== 
     psi = 0.372*[#   6]+0.372*[#  14]+0.124*[#   2]+0.124*[#  10]+
    |psi|^2 = 0.994
==== e(   8) =    -0.67674 eV ==== 
     psi = 0.385*[#   2]+0.385*[#  10]+0.112*[#   6]+0.112*[#  14]+
    |psi|^2 = 0.994
==== e(   9) =    -0.30822 eV ==== 
     psi = 0.371*[#   2]+0.371*[#  10]+0.125*[#   6]+0.125*[#  14]+
    |psi|^2 = 0.992
==== e(  10) =     0.07021 eV ==== 
     psi = 0.384*[#   6]+0.384*[#  14]+0.112*[#   2]+0.112*[#  10]+
    |psi|^2 = 0.992
==== e(  11) =    10.09566 eV ==== 
     psi = 0.008*[#   1]+0.008*[#   9]+0.002*[#   8]+0.002*[#  16]+0.002*[#   7]+
          +0.002*[#  15]+
    |psi|^2 = 0.022
==== e(  12) =    10.14627 eV ==== 
     psi = 0.007*[#   1]+0.007*[#   9]+0.002*[#   8]+0.002*[#  16]+0.002*[#   7]+
          +0.002*[#  15]+
    |psi|^2 = 0.023
==== e(  13) =    11.98517 eV ==== 
     psi = 0.087*[#   5]+0.087*[#  13]+0.031*[#   4]+0.031*[#  12]+0.024*[#   3]+
          +0.024*[#  11]+0.003*[#   1]+0.003*[#   9]+0.001*[#   8]+0.001*[#  16]+
    |psi|^2 = 0.293
==== e(  14) =    12.32600 eV ==== 
     psi = 0.053*[#   1]+0.053*[#   9]+0.026*[#   5]+0.026*[#  13]+0.024*[#   8]+
          +0.024*[#  16]+0.014*[#   3]+0.014*[#  11]+0.010*[#   7]+0.010*[#  15]+
          +0.005*[#   4]+0.005*[#  12]+
    |psi|^2 = 0.266
==== e(  15) =    12.47230 eV ==== 
     psi = 0.084*[#   1]+0.084*[#   9]+0.041*[#   7]+0.041*[#  15]+0.022*[#   8]+
          +0.022*[#  16]+0.002*[#   5]+0.002*[#  13]+0.002*[#   3]+0.002*[#  11]+
          +0.002*[#   4]+0.002*[#  12]+
    |psi|^2 = 0.306
==== e(  16) =    13.11037 eV ==== 
     psi = 0.099*[#   5]+0.099*[#  13]+0.038*[#   4]+0.038*[#  12]+0.036*[#   3]+
          +0.036*[#  11]+0.002*[#   1]+0.002*[#   9]+
    |psi|^2 = 0.354

Lowdin Charges: 

     Atom #   1: total charge =   3.9612, s =  0.9176, p =  3.0437, 
                 spin up      =   1.9823, s =  0.4590, 
                 spin up      =   1.9823, p =  1.5233, pz=  0.4982, px=  0.5125, py=  0.5125, 
                 spin down    =   1.9790, s =  0.4586, 
                 spin down    =   1.9790, p =  1.5203, pz=  0.4956, px=  0.5124, py=  0.5124, 
                 polarization =   0.0033, s =  0.0003, p =  0.0030, 
     Atom #   2: total charge =   3.9557, s =  0.9185, p =  3.0372, 
                 spin up      =   1.9762, s =  0.4591, 
                 spin up      =   1.9762, p =  1.5171, pz=  0.4913, px=  0.5129, py=  0.5129, 
                 spin down    =   1.9795, s =  0.4594, 
                 spin down    =   1.9795, p =  1.5201, pz=  0.4939, px=  0.5131, py=  0.5131, 
                 polarization =  -0.0033, s = -0.0002, p = -0.0031, 
     Atom #   3: total charge =   3.9612, s =  0.9176, p =  3.0436, 
                 spin up      =   1.9822, s =  0.4590, 
                 spin up      =   1.9822, p =  1.5233, pz=  0.4982, px=  0.5125, py=  0.5125, 
                 spin down    =   1.9789, s =  0.4586, 
                 spin down    =   1.9789, p =  1.5203, pz=  0.4956, px=  0.5124, py=  0.5124, 
                 polarization =   0.0033, s =  0.0003, p =  0.0030, 
     Atom #   4: total charge =   3.9557, s =  0.9185, p =  3.0372, 
                 spin up      =   1.9762, s =  0.4591, 
                 spin up      =   1.9762, p =  1.5171, pz=  0.4913, px=  0.5129, py=  0.5129, 
                 spin down    =   1.9795, s =  0.4594, 
                 spin down    =   1.9795, p =  1.5201, pz=  0.4939, px=  0.5131, py=  0.5131, 
                 polarization =  -0.0033, s = -0.0002, p = -0.0031, 
     Spilling Parameter:   0.0104
