
     Program PWSCF v.5.1 starts on 30Apr2020 at 20:16:54 

     This program is part of the open-source Quantum ESPRESSO suite
     for quantum simulation of materials; please cite
         "P. Giannozzi et al., J. Phys.:Condens. Matter 21 395502 (2009);
          URL http://www.quantum-espresso.org", 
     in publications or presentations arising from this work. More details at
     http://www.quantum-espresso.org/quote

     Parallel version (MPI), running on     1 processors
     Waiting for input...
     Reading input from standard input

     Current dimensions of program PWSCF are:
     Max number of different atomic species (ntypx) = 10
     Max number of k-points (npk) =  40000
     Max angular momentum in pseudopotentials (lmaxx) =  3

     Atomic positions and unit cell read from directory:
     ../tmp/gra.dos1.save/


     IMPORTANT: XC functional enforced from input :
     Exchange-correlation      = PBE ( 1  4  3  4 0)
     Any further DFT definition will be discarded
     Please, verify this is what you really want

               file C.pbe-rrkjus.UPF: wavefunction(s)  2S 2P renormalized

     Subspace diagonalization in iterative solution of the eigenvalue problem:
     a serial algorithm will be used


     G-vector sticks info
     --------------------
     sticks:   dense  smooth     PW     G-vecs:    dense   smooth      PW
     Sum         595     241     85                96043    24369    4587

     Generating pointlists ...
     new r_m :   0.2381 (alat units)  1.1104 (a.u.) for type    1


     bravais-lattice index     =           12
     lattice parameter (alat)  =       4.6627  a.u.
     unit-cell volume          =     711.6007 (a.u.)^3
     number of atoms/cell      =            4
     number of atomic types    =            1
     number of electrons       =        16.00
     number of Kohn-Sham states=           16
     kinetic-energy cutoff     =      40.0000  Ry
     charge density cutoff     =     400.0000  Ry
     Exchange-correlation      = PBE ( 1  4  3  4 0)

     celldm(1)=   4.662710  celldm(2)=   1.000000  celldm(3)=   8.105698
     celldm(4)=  -0.500000  celldm(5)=   0.000000  celldm(6)=   0.000000

     crystal axes: (cart. coord. in units of alat)
               a(1) = (   1.000000   0.000000   0.000000 )  
               a(2) = (  -0.500000   0.866025   0.000000 )  
               a(3) = (   0.000000   0.000000   8.105698 )  

     reciprocal axes: (cart. coord. in units 2 pi/alat)
               b(1) = (  1.000000  0.577350 -0.000000 )  
               b(2) = (  0.000000  1.154701  0.000000 )  
               b(3) = (  0.000000 -0.000000  0.123370 )  


     PseudoPot. # 1 for C  read from file:
     ../pseudo/C.pbe-rrkjus.UPF
     MD5 check sum: 00fb224312de0c5b6853bd333518df6f
     Pseudo is Ultrasoft, Zval =  4.0
     Generated by new atomic code, or converted to UPF format
     Using radial grid of  627 points,  4 beta functions with: 
                l(1) =   0
                l(2) =   0
                l(3) =   1
                l(4) =   1
     Q(r) pseudized with 0 coefficients 


     atomic species   valence    mass     pseudopotential
        C              4.00    12.01100     C ( 1.00)

     Starting magnetic structure 
     atomic species   magnetization
        C            0.500

      2 Sym. Ops. (no inversion) found
          (note:  2 additional sym.ops. were found but ignored
           their fractional translations are incommensurate with FFT grid)

                                    s                        frac. trans.

      isym =  1     identity                                     

 cryst.   s( 1) = (     1          0          0      )
                  (     0          1          0      )
                  (     0          0          1      )

 cart.    s( 1) = (  1.0000000  0.0000000  0.0000000 )
                  (  0.0000000  1.0000000  0.0000000 )
                  (  0.0000000  0.0000000  1.0000000 )


      isym =  2     inv. 180 deg rotation - cart. axis [1,0,0]   

 cryst.   s( 2) = (    -1          0          0      )
                  (     1          1          0      )
                  (     0          0          1      )

 cart.    s( 2) = ( -1.0000000  0.0000000  0.0000000 )
                  (  0.0000000  1.0000000  0.0000000 )
                  (  0.0000000  0.0000000  1.0000000 )


     point group C_s (m)    
     there are  2 classes
     the character table:

       E     s    
A'     1.00  1.00
A''    1.00 -1.00

     the symmetry operations in each class:
     E        1
     s        2

   Cartesian axes

     site n.     atom                  positions (alat units)
         1           C   tau(   1) = (   0.0000000   0.0000000   2.0264246  )
         2           C   tau(   2) = (   0.0000000   0.5773284   2.0264246  )
         3           C   tau(   3) = (   0.0000000   1.1546567   3.3354949  )
         4           C   tau(   4) = (   0.0000000   0.5773284   3.3354949  )

   Crystallographic axes

     site n.     atom                  positions (cryst. coord.)
         1           C   tau(   1) = (  0.0000000  0.0000000  0.2500000  )
         2           C   tau(   2) = (  0.3333207  0.6666414  0.2500000  )
         3           C   tau(   3) = (  0.6666414  1.3332827  0.4115000  )
         4           C   tau(   4) = (  0.3333207  0.6666414  0.4115000  )

     number of k points=  1202 (tetrahedron method)
                       cart. coord. in units 2pi/alat
        k(    1) = (   0.0000000   0.0000000   0.0000000), wk =   0.0004340
        k(    2) = (   0.0000000   0.0240563   0.0000000), wk =   0.0008681
        k(    3) = (   0.0000000   0.0481125   0.0000000), wk =   0.0008681
        k(    4) = (   0.0000000   0.0721688   0.0000000), wk =   0.0008681
        k(    5) = (   0.0000000   0.0962250   0.0000000), wk =   0.0008681
        k(    6) = (   0.0000000   0.1202813   0.0000000), wk =   0.0008681
        k(    7) = (   0.0000000   0.1443376   0.0000000), wk =   0.0008681
        k(    8) = (   0.0000000   0.1683938   0.0000000), wk =   0.0008681
        k(    9) = (   0.0000000   0.1924501   0.0000000), wk =   0.0008681
        k(   10) = (   0.0000000   0.2165064   0.0000000), wk =   0.0008681
        k(   11) = (   0.0000000   0.2405626   0.0000000), wk =   0.0008681
        k(   12) = (   0.0000000   0.2646189   0.0000000), wk =   0.0008681
        k(   13) = (   0.0000000   0.2886751   0.0000000), wk =   0.0008681
        k(   14) = (   0.0000000   0.3127314   0.0000000), wk =   0.0008681
        k(   15) = (   0.0000000   0.3367877   0.0000000), wk =   0.0008681
        k(   16) = (   0.0000000   0.3608439   0.0000000), wk =   0.0008681
        k(   17) = (   0.0000000   0.3849002   0.0000000), wk =   0.0008681
        k(   18) = (   0.0000000   0.4089564   0.0000000), wk =   0.0008681
        k(   19) = (   0.0000000   0.4330127   0.0000000), wk =   0.0008681
        k(   20) = (   0.0000000   0.4570690   0.0000000), wk =   0.0008681
        k(   21) = (   0.0000000   0.4811252   0.0000000), wk =   0.0008681
        k(   22) = (   0.0000000   0.5051815   0.0000000), wk =   0.0008681
        k(   23) = (   0.0000000   0.5292377   0.0000000), wk =   0.0008681
        k(   24) = (   0.0000000   0.5532940   0.0000000), wk =   0.0008681
        k(   25) = (   0.0000000  -0.5773503   0.0000000), wk =   0.0004340
        k(   26) = (   0.0208333   0.0360844   0.0000000), wk =   0.0017361
        k(   27) = (   0.0208333   0.0601407   0.0000000), wk =   0.0017361
        k(   28) = (   0.0208333   0.0841969   0.0000000), wk =   0.0017361
        k(   29) = (   0.0208333   0.1082532   0.0000000), wk =   0.0017361
        k(   30) = (   0.0208333   0.1323094   0.0000000), wk =   0.0017361
        k(   31) = (   0.0208333   0.1563657   0.0000000), wk =   0.0017361
        k(   32) = (   0.0208333   0.1804220   0.0000000), wk =   0.0017361
        k(   33) = (   0.0208333   0.2044782   0.0000000), wk =   0.0017361
        k(   34) = (   0.0208333   0.2285345   0.0000000), wk =   0.0017361
        k(   35) = (   0.0208333   0.2525907   0.0000000), wk =   0.0017361
        k(   36) = (   0.0208333   0.2766470   0.0000000), wk =   0.0017361
        k(   37) = (   0.0208333   0.3007033   0.0000000), wk =   0.0017361
        k(   38) = (   0.0208333   0.3247595   0.0000000), wk =   0.0017361
        k(   39) = (   0.0208333   0.3488158   0.0000000), wk =   0.0017361
        k(   40) = (   0.0208333   0.3728720   0.0000000), wk =   0.0017361
        k(   41) = (   0.0208333   0.3969283   0.0000000), wk =   0.0017361
        k(   42) = (   0.0208333   0.4209846   0.0000000), wk =   0.0017361
        k(   43) = (   0.0208333   0.4450408   0.0000000), wk =   0.0017361
        k(   44) = (   0.0208333   0.4690971   0.0000000), wk =   0.0017361
        k(   45) = (   0.0208333   0.4931534   0.0000000), wk =   0.0017361
        k(   46) = (   0.0208333   0.5172096   0.0000000), wk =   0.0017361
        k(   47) = (   0.0208333   0.5412659   0.0000000), wk =   0.0017361
        k(   48) = (   0.0208333   0.5653221   0.0000000), wk =   0.0017361
        k(   49) = (   0.0416667   0.0721688   0.0000000), wk =   0.0017361
        k(   50) = (   0.0416667   0.0962250   0.0000000), wk =   0.0017361
        k(   51) = (   0.0416667   0.1202813   0.0000000), wk =   0.0017361
        k(   52) = (   0.0416667   0.1443376   0.0000000), wk =   0.0017361
        k(   53) = (   0.0416667   0.1683938   0.0000000), wk =   0.0017361
        k(   54) = (   0.0416667   0.1924501   0.0000000), wk =   0.0017361
        k(   55) = (   0.0416667   0.2165064   0.0000000), wk =   0.0017361
        k(   56) = (   0.0416667   0.2405626   0.0000000), wk =   0.0017361
        k(   57) = (   0.0416667   0.2646189   0.0000000), wk =   0.0017361
        k(   58) = (   0.0416667   0.2886751   0.0000000), wk =   0.0017361
        k(   59) = (   0.0416667   0.3127314   0.0000000), wk =   0.0017361
        k(   60) = (   0.0416667   0.3367877   0.0000000), wk =   0.0017361
        k(   61) = (   0.0416667   0.3608439   0.0000000), wk =   0.0017361
        k(   62) = (   0.0416667   0.3849002   0.0000000), wk =   0.0017361
        k(   63) = (   0.0416667   0.4089564   0.0000000), wk =   0.0017361
        k(   64) = (   0.0416667   0.4330127   0.0000000), wk =   0.0017361
        k(   65) = (   0.0416667   0.4570690   0.0000000), wk =   0.0017361
        k(   66) = (   0.0416667   0.4811252   0.0000000), wk =   0.0017361
        k(   67) = (   0.0416667   0.5051815   0.0000000), wk =   0.0017361
        k(   68) = (   0.0416667   0.5292377   0.0000000), wk =   0.0017361
        k(   69) = (   0.0416667   0.5532940   0.0000000), wk =   0.0017361
        k(   70) = (   0.0416667   0.5773503   0.0000000), wk =   0.0008681
        k(   71) = (   0.0625000   0.1082532   0.0000000), wk =   0.0017361
        k(   72) = (   0.0625000   0.1323094   0.0000000), wk =   0.0017361
        k(   73) = (   0.0625000   0.1563657   0.0000000), wk =   0.0017361
        k(   74) = (   0.0625000   0.1804220   0.0000000), wk =   0.0017361
        k(   75) = (   0.0625000   0.2044782   0.0000000), wk =   0.0017361
        k(   76) = (   0.0625000   0.2285345   0.0000000), wk =   0.0017361
        k(   77) = (   0.0625000   0.2525907   0.0000000), wk =   0.0017361
        k(   78) = (   0.0625000   0.2766470   0.0000000), wk =   0.0017361
        k(   79) = (   0.0625000   0.3007033   0.0000000), wk =   0.0017361
        k(   80) = (   0.0625000   0.3247595   0.0000000), wk =   0.0017361
        k(   81) = (   0.0625000   0.3488158   0.0000000), wk =   0.0017361
        k(   82) = (   0.0625000   0.3728720   0.0000000), wk =   0.0017361
        k(   83) = (   0.0625000   0.3969283   0.0000000), wk =   0.0017361
        k(   84) = (   0.0625000   0.4209846   0.0000000), wk =   0.0017361
        k(   85) = (   0.0625000   0.4450408   0.0000000), wk =   0.0017361
        k(   86) = (   0.0625000   0.4690971   0.0000000), wk =   0.0017361
        k(   87) = (   0.0625000   0.4931534   0.0000000), wk =   0.0017361
        k(   88) = (   0.0625000   0.5172096   0.0000000), wk =   0.0017361
        k(   89) = (   0.0625000   0.5412659   0.0000000), wk =   0.0017361
        k(   90) = (   0.0625000   0.5653221   0.0000000), wk =   0.0017361
        k(   91) = (   0.0833333   0.1443376   0.0000000), wk =   0.0017361
        k(   92) = (   0.0833333   0.1683938   0.0000000), wk =   0.0017361
        k(   93) = (   0.0833333   0.1924501   0.0000000), wk =   0.0017361
        k(   94) = (   0.0833333   0.2165064   0.0000000), wk =   0.0017361
        k(   95) = (   0.0833333   0.2405626   0.0000000), wk =   0.0017361
        k(   96) = (   0.0833333   0.2646189   0.0000000), wk =   0.0017361
        k(   97) = (   0.0833333   0.2886751   0.0000000), wk =   0.0017361
        k(   98) = (   0.0833333   0.3127314   0.0000000), wk =   0.0017361
        k(   99) = (   0.0833333   0.3367877   0.0000000), wk =   0.0017361
        k(  100) = (   0.0833333   0.3608439   0.0000000), wk =   0.0017361
        k(  101) = (   0.0833333   0.3849002   0.0000000), wk =   0.0017361
        k(  102) = (   0.0833333   0.4089564   0.0000000), wk =   0.0017361
        k(  103) = (   0.0833333   0.4330127   0.0000000), wk =   0.0017361
        k(  104) = (   0.0833333   0.4570690   0.0000000), wk =   0.0017361
        k(  105) = (   0.0833333   0.4811252   0.0000000), wk =   0.0017361
        k(  106) = (   0.0833333   0.5051815   0.0000000), wk =   0.0017361
        k(  107) = (   0.0833333   0.5292377   0.0000000), wk =   0.0017361
        k(  108) = (   0.0833333   0.5532940   0.0000000), wk =   0.0017361
        k(  109) = (   0.0833333   0.5773503   0.0000000), wk =   0.0008681
        k(  110) = (   0.1041667   0.1804220   0.0000000), wk =   0.0017361
        k(  111) = (   0.1041667   0.2044782   0.0000000), wk =   0.0017361
        k(  112) = (   0.1041667   0.2285345   0.0000000), wk =   0.0017361
        k(  113) = (   0.1041667   0.2525907   0.0000000), wk =   0.0017361
        k(  114) = (   0.1041667   0.2766470   0.0000000), wk =   0.0017361
        k(  115) = (   0.1041667   0.3007033   0.0000000), wk =   0.0017361
        k(  116) = (   0.1041667   0.3247595   0.0000000), wk =   0.0017361
        k(  117) = (   0.1041667   0.3488158   0.0000000), wk =   0.0017361
        k(  118) = (   0.1041667   0.3728720   0.0000000), wk =   0.0017361
        k(  119) = (   0.1041667   0.3969283   0.0000000), wk =   0.0017361
        k(  120) = (   0.1041667   0.4209846   0.0000000), wk =   0.0017361
        k(  121) = (   0.1041667   0.4450408   0.0000000), wk =   0.0017361
        k(  122) = (   0.1041667   0.4690971   0.0000000), wk =   0.0017361
        k(  123) = (   0.1041667   0.4931534   0.0000000), wk =   0.0017361
        k(  124) = (   0.1041667   0.5172096   0.0000000), wk =   0.0017361
        k(  125) = (   0.1041667   0.5412659   0.0000000), wk =   0.0017361
        k(  126) = (   0.1041667   0.5653221   0.0000000), wk =   0.0017361
        k(  127) = (   0.1250000   0.2165064   0.0000000), wk =   0.0017361
        k(  128) = (   0.1250000   0.2405626   0.0000000), wk =   0.0017361
        k(  129) = (   0.1250000   0.2646189   0.0000000), wk =   0.0017361
        k(  130) = (   0.1250000   0.2886751   0.0000000), wk =   0.0017361
        k(  131) = (   0.1250000   0.3127314   0.0000000), wk =   0.0017361
        k(  132) = (   0.1250000   0.3367877   0.0000000), wk =   0.0017361
        k(  133) = (   0.1250000   0.3608439   0.0000000), wk =   0.0017361
        k(  134) = (   0.1250000   0.3849002   0.0000000), wk =   0.0017361
        k(  135) = (   0.1250000   0.4089564   0.0000000), wk =   0.0017361
        k(  136) = (   0.1250000   0.4330127   0.0000000), wk =   0.0017361
        k(  137) = (   0.1250000   0.4570690   0.0000000), wk =   0.0017361
        k(  138) = (   0.1250000   0.4811252   0.0000000), wk =   0.0017361
        k(  139) = (   0.1250000   0.5051815   0.0000000), wk =   0.0017361
        k(  140) = (   0.1250000   0.5292377   0.0000000), wk =   0.0017361
        k(  141) = (   0.1250000   0.5532940   0.0000000), wk =   0.0017361
        k(  142) = (   0.1250000   0.5773503   0.0000000), wk =   0.0008681
        k(  143) = (   0.1458333   0.2525907   0.0000000), wk =   0.0017361
        k(  144) = (   0.1458333   0.2766470   0.0000000), wk =   0.0017361
        k(  145) = (   0.1458333   0.3007033   0.0000000), wk =   0.0017361
        k(  146) = (   0.1458333   0.3247595   0.0000000), wk =   0.0017361
        k(  147) = (   0.1458333   0.3488158   0.0000000), wk =   0.0017361
        k(  148) = (   0.1458333   0.3728720   0.0000000), wk =   0.0017361
        k(  149) = (   0.1458333   0.3969283   0.0000000), wk =   0.0017361
        k(  150) = (   0.1458333   0.4209846   0.0000000), wk =   0.0017361
        k(  151) = (   0.1458333   0.4450408   0.0000000), wk =   0.0017361
        k(  152) = (   0.1458333   0.4690971   0.0000000), wk =   0.0017361
        k(  153) = (   0.1458333   0.4931534   0.0000000), wk =   0.0017361
        k(  154) = (   0.1458333   0.5172096   0.0000000), wk =   0.0017361
        k(  155) = (   0.1458333   0.5412659   0.0000000), wk =   0.0017361
        k(  156) = (   0.1458333   0.5653221   0.0000000), wk =   0.0017361
        k(  157) = (   0.1666667   0.2886751   0.0000000), wk =   0.0017361
        k(  158) = (   0.1666667   0.3127314   0.0000000), wk =   0.0017361
        k(  159) = (   0.1666667   0.3367877   0.0000000), wk =   0.0017361
        k(  160) = (   0.1666667   0.3608439   0.0000000), wk =   0.0017361
        k(  161) = (   0.1666667   0.3849002   0.0000000), wk =   0.0017361
        k(  162) = (   0.1666667   0.4089564   0.0000000), wk =   0.0017361
        k(  163) = (   0.1666667   0.4330127   0.0000000), wk =   0.0017361
        k(  164) = (   0.1666667   0.4570690   0.0000000), wk =   0.0017361
        k(  165) = (   0.1666667   0.4811252   0.0000000), wk =   0.0017361
        k(  166) = (   0.1666667   0.5051815   0.0000000), wk =   0.0017361
        k(  167) = (   0.1666667   0.5292377   0.0000000), wk =   0.0017361
        k(  168) = (   0.1666667   0.5532940   0.0000000), wk =   0.0017361
        k(  169) = (   0.1666667   0.5773503   0.0000000), wk =   0.0008681
        k(  170) = (   0.1875000   0.3247595   0.0000000), wk =   0.0017361
        k(  171) = (   0.1875000   0.3488158   0.0000000), wk =   0.0017361
        k(  172) = (   0.1875000   0.3728720   0.0000000), wk =   0.0017361
        k(  173) = (   0.1875000   0.3969283   0.0000000), wk =   0.0017361
        k(  174) = (   0.1875000   0.4209846   0.0000000), wk =   0.0017361
        k(  175) = (   0.1875000   0.4450408   0.0000000), wk =   0.0017361
        k(  176) = (   0.1875000   0.4690971   0.0000000), wk =   0.0017361
        k(  177) = (   0.1875000   0.4931534   0.0000000), wk =   0.0017361
        k(  178) = (   0.1875000   0.5172096   0.0000000), wk =   0.0017361
        k(  179) = (   0.1875000   0.5412659   0.0000000), wk =   0.0017361
        k(  180) = (   0.1875000   0.5653221   0.0000000), wk =   0.0017361
        k(  181) = (   0.2083333   0.3608439   0.0000000), wk =   0.0017361
        k(  182) = (   0.2083333   0.3849002   0.0000000), wk =   0.0017361
        k(  183) = (   0.2083333   0.4089564   0.0000000), wk =   0.0017361
        k(  184) = (   0.2083333   0.4330127   0.0000000), wk =   0.0017361
        k(  185) = (   0.2083333   0.4570690   0.0000000), wk =   0.0017361
        k(  186) = (   0.2083333   0.4811252   0.0000000), wk =   0.0017361
        k(  187) = (   0.2083333   0.5051815   0.0000000), wk =   0.0017361
        k(  188) = (   0.2083333   0.5292377   0.0000000), wk =   0.0017361
        k(  189) = (   0.2083333   0.5532940   0.0000000), wk =   0.0017361
        k(  190) = (   0.2083333   0.5773503   0.0000000), wk =   0.0008681
        k(  191) = (   0.2291667   0.3969283   0.0000000), wk =   0.0017361
        k(  192) = (   0.2291667   0.4209846   0.0000000), wk =   0.0017361
        k(  193) = (   0.2291667   0.4450408   0.0000000), wk =   0.0017361
        k(  194) = (   0.2291667   0.4690971   0.0000000), wk =   0.0017361
        k(  195) = (   0.2291667   0.4931534   0.0000000), wk =   0.0017361
        k(  196) = (   0.2291667   0.5172096   0.0000000), wk =   0.0017361
        k(  197) = (   0.2291667   0.5412659   0.0000000), wk =   0.0017361
        k(  198) = (   0.2291667   0.5653221   0.0000000), wk =   0.0017361
        k(  199) = (   0.2500000   0.4330127   0.0000000), wk =   0.0017361
        k(  200) = (   0.2500000   0.4570690   0.0000000), wk =   0.0017361
        k(  201) = (   0.2500000   0.4811252   0.0000000), wk =   0.0017361
        k(  202) = (   0.2500000   0.5051815   0.0000000), wk =   0.0017361
        k(  203) = (   0.2500000   0.5292377   0.0000000), wk =   0.0017361
        k(  204) = (   0.2500000   0.5532940   0.0000000), wk =   0.0017361
        k(  205) = (   0.2500000   0.5773503   0.0000000), wk =   0.0008681
        k(  206) = (   0.2708333   0.4690971   0.0000000), wk =   0.0017361
        k(  207) = (   0.2708333   0.4931534   0.0000000), wk =   0.0017361
        k(  208) = (   0.2708333   0.5172096   0.0000000), wk =   0.0017361
        k(  209) = (   0.2708333   0.5412659   0.0000000), wk =   0.0017361
        k(  210) = (   0.2708333   0.5653221   0.0000000), wk =   0.0017361
        k(  211) = (   0.2916667   0.5051815   0.0000000), wk =   0.0017361
        k(  212) = (   0.2916667   0.5292377   0.0000000), wk =   0.0017361
        k(  213) = (   0.2916667   0.5532940   0.0000000), wk =   0.0017361
        k(  214) = (   0.2916667   0.5773503   0.0000000), wk =   0.0008681
        k(  215) = (   0.3125000   0.5412659   0.0000000), wk =   0.0017361
        k(  216) = (   0.3125000   0.5653221   0.0000000), wk =   0.0017361
        k(  217) = (   0.3333333   0.5773503   0.0000000), wk =   0.0008681
        k(  218) = (  -0.0208333   0.0120281   0.0000000), wk =   0.0017361
        k(  219) = (  -0.0416667   0.0240563   0.0000000), wk =   0.0017361
        k(  220) = (  -0.0625000   0.0360844   0.0000000), wk =   0.0017361
        k(  221) = (  -0.0833333   0.0481125   0.0000000), wk =   0.0017361
        k(  222) = (  -0.1041667   0.0601407   0.0000000), wk =   0.0017361
        k(  223) = (  -0.1250000   0.0721688   0.0000000), wk =   0.0017361
        k(  224) = (  -0.1458333   0.0841969   0.0000000), wk =   0.0017361
        k(  225) = (  -0.1666667   0.0962250   0.0000000), wk =   0.0017361
        k(  226) = (  -0.1875000   0.1082532   0.0000000), wk =   0.0017361
        k(  227) = (  -0.2083333   0.1202813   0.0000000), wk =   0.0017361
        k(  228) = (  -0.2291667   0.1323094   0.0000000), wk =   0.0017361
        k(  229) = (  -0.2500000   0.1443376   0.0000000), wk =   0.0017361
        k(  230) = (  -0.2708333   0.1563657   0.0000000), wk =   0.0017361
        k(  231) = (  -0.2916667   0.1683938   0.0000000), wk =   0.0017361
        k(  232) = (  -0.3125000   0.1804220   0.0000000), wk =   0.0017361
        k(  233) = (  -0.3333333   0.1924501   0.0000000), wk =   0.0017361
        k(  234) = (  -0.3541667   0.2044782   0.0000000), wk =   0.0017361
        k(  235) = (  -0.3750000   0.2165064   0.0000000), wk =   0.0017361
        k(  236) = (  -0.3958333   0.2285345   0.0000000), wk =   0.0017361
        k(  237) = (  -0.4166667   0.2405626   0.0000000), wk =   0.0017361
        k(  238) = (  -0.4375000   0.2525907   0.0000000), wk =   0.0017361
        k(  239) = (  -0.4583333   0.2646189   0.0000000), wk =   0.0017361
        k(  240) = (  -0.4791667   0.2766470   0.0000000), wk =   0.0017361
        k(  241) = (   0.5000000  -0.2886751   0.0000000), wk =   0.0008681
        k(  242) = (   0.0416667  -0.0000000   0.0000000), wk =   0.0008681
        k(  243) = (  -0.0416667   0.0481125   0.0000000), wk =   0.0017361
        k(  244) = (   0.0625000   0.0120281   0.0000000), wk =   0.0017361
        k(  245) = (  -0.0625000   0.0601407   0.0000000), wk =   0.0017361
        k(  246) = (   0.0833333   0.0240563   0.0000000), wk =   0.0017361
        k(  247) = (  -0.0833333   0.0721688   0.0000000), wk =   0.0017361
        k(  248) = (   0.1041667   0.0360844   0.0000000), wk =   0.0017361
        k(  249) = (  -0.1041667   0.0841969   0.0000000), wk =   0.0017361
        k(  250) = (   0.1250000   0.0481125   0.0000000), wk =   0.0017361
        k(  251) = (  -0.1250000   0.0962250   0.0000000), wk =   0.0017361
        k(  252) = (   0.1458333   0.0601407   0.0000000), wk =   0.0017361
        k(  253) = (  -0.1458333   0.1082532   0.0000000), wk =   0.0017361
        k(  254) = (   0.1666667   0.0721688   0.0000000), wk =   0.0017361
        k(  255) = (  -0.1666667   0.1202813   0.0000000), wk =   0.0017361
        k(  256) = (   0.1875000   0.0841969   0.0000000), wk =   0.0017361
        k(  257) = (  -0.1875000   0.1323094   0.0000000), wk =   0.0017361
        k(  258) = (   0.2083333   0.0962250   0.0000000), wk =   0.0017361
        k(  259) = (  -0.2083333   0.1443376   0.0000000), wk =   0.0017361
        k(  260) = (   0.2291667   0.1082532   0.0000000), wk =   0.0017361
        k(  261) = (  -0.2291667   0.1563657   0.0000000), wk =   0.0017361
        k(  262) = (   0.2500000   0.1202813   0.0000000), wk =   0.0017361
        k(  263) = (  -0.2500000   0.1683938   0.0000000), wk =   0.0017361
        k(  264) = (   0.2708333   0.1323094   0.0000000), wk =   0.0017361
        k(  265) = (  -0.2708333   0.1804220   0.0000000), wk =   0.0017361
        k(  266) = (   0.2916667   0.1443376   0.0000000), wk =   0.0017361
        k(  267) = (  -0.2916667   0.1924501   0.0000000), wk =   0.0017361
        k(  268) = (   0.3125000   0.1563657   0.0000000), wk =   0.0017361
        k(  269) = (  -0.3125000   0.2044782   0.0000000), wk =   0.0017361
        k(  270) = (   0.3333333   0.1683938   0.0000000), wk =   0.0017361
        k(  271) = (  -0.3333333   0.2165064   0.0000000), wk =   0.0017361
        k(  272) = (   0.3541667   0.1804220   0.0000000), wk =   0.0017361
        k(  273) = (  -0.3541667   0.2285345   0.0000000), wk =   0.0017361
        k(  274) = (   0.3750000   0.1924501   0.0000000), wk =   0.0017361
        k(  275) = (  -0.3750000   0.2405626   0.0000000), wk =   0.0017361
        k(  276) = (   0.3958333   0.2044782   0.0000000), wk =   0.0017361
        k(  277) = (  -0.3958333   0.2525907   0.0000000), wk =   0.0017361
        k(  278) = (   0.4166667   0.2165064   0.0000000), wk =   0.0017361
        k(  279) = (  -0.4166667   0.2646189   0.0000000), wk =   0.0017361
        k(  280) = (   0.4375000   0.2285345   0.0000000), wk =   0.0017361
        k(  281) = (  -0.4375000   0.2766470   0.0000000), wk =   0.0017361
        k(  282) = (   0.4583333   0.2405626   0.0000000), wk =   0.0017361
        k(  283) = (  -0.4583333   0.2886751   0.0000000), wk =   0.0017361
        k(  284) = (   0.4791667   0.2525907   0.0000000), wk =   0.0017361
        k(  285) = (  -0.4791667   0.3007033   0.0000000), wk =   0.0017361
        k(  286) = (   0.5000000   0.2646189   0.0000000), wk =   0.0017361
        k(  287) = (   0.0833333  -0.0000000   0.0000000), wk =   0.0008681
        k(  288) = (  -0.0625000   0.0841969   0.0000000), wk =   0.0017361
        k(  289) = (   0.1041667   0.0120281   0.0000000), wk =   0.0017361
        k(  290) = (  -0.0833333   0.0962250   0.0000000), wk =   0.0017361
        k(  291) = (   0.1250000   0.0240563   0.0000000), wk =   0.0017361
        k(  292) = (  -0.1041667   0.1082532   0.0000000), wk =   0.0017361
        k(  293) = (   0.1458333   0.0360844   0.0000000), wk =   0.0017361
        k(  294) = (  -0.1250000   0.1202813   0.0000000), wk =   0.0017361
        k(  295) = (   0.1666667   0.0481125   0.0000000), wk =   0.0017361
        k(  296) = (  -0.1458333   0.1323094   0.0000000), wk =   0.0017361
        k(  297) = (   0.1875000   0.0601407   0.0000000), wk =   0.0017361
        k(  298) = (  -0.1666667   0.1443376   0.0000000), wk =   0.0017361
        k(  299) = (   0.2083333   0.0721688   0.0000000), wk =   0.0017361
        k(  300) = (  -0.1875000   0.1563657   0.0000000), wk =   0.0017361
        k(  301) = (   0.2291667   0.0841969   0.0000000), wk =   0.0017361
        k(  302) = (  -0.2083333   0.1683938   0.0000000), wk =   0.0017361
        k(  303) = (   0.2500000   0.0962250   0.0000000), wk =   0.0017361
        k(  304) = (  -0.2291667   0.1804220   0.0000000), wk =   0.0017361
        k(  305) = (   0.2708333   0.1082532   0.0000000), wk =   0.0017361
        k(  306) = (  -0.2500000   0.1924501   0.0000000), wk =   0.0017361
        k(  307) = (   0.2916667   0.1202813   0.0000000), wk =   0.0017361
        k(  308) = (  -0.2708333   0.2044782   0.0000000), wk =   0.0017361
        k(  309) = (   0.3125000   0.1323094   0.0000000), wk =   0.0017361
        k(  310) = (  -0.2916667   0.2165064   0.0000000), wk =   0.0017361
        k(  311) = (   0.3333333   0.1443376   0.0000000), wk =   0.0017361
        k(  312) = (  -0.3125000   0.2285345   0.0000000), wk =   0.0017361
        k(  313) = (   0.3541667   0.1563657   0.0000000), wk =   0.0017361
        k(  314) = (  -0.3333333   0.2405626   0.0000000), wk =   0.0017361
        k(  315) = (   0.3750000   0.1683938   0.0000000), wk =   0.0017361
        k(  316) = (  -0.3541667   0.2525907   0.0000000), wk =   0.0017361
        k(  317) = (   0.3958333   0.1804220   0.0000000), wk =   0.0017361
        k(  318) = (  -0.3750000   0.2646189   0.0000000), wk =   0.0017361
        k(  319) = (   0.4166667   0.1924501   0.0000000), wk =   0.0017361
        k(  320) = (  -0.3958333   0.2766470   0.0000000), wk =   0.0017361
        k(  321) = (   0.4375000   0.2044782   0.0000000), wk =   0.0017361
        k(  322) = (  -0.4166667   0.2886751   0.0000000), wk =   0.0017361
        k(  323) = (   0.4583333   0.2165064   0.0000000), wk =   0.0017361
        k(  324) = (  -0.4375000   0.3007033   0.0000000), wk =   0.0017361
        k(  325) = (   0.4791667   0.2285345   0.0000000), wk =   0.0017361
        k(  326) = (  -0.4583333   0.3127314   0.0000000), wk =   0.0017361
        k(  327) = (   0.5000000   0.2405626   0.0000000), wk =   0.0017361
        k(  328) = (  -0.4791667   0.3247595   0.0000000), wk =   0.0017361
        k(  329) = (   0.1250000  -0.0000000   0.0000000), wk =   0.0008681
        k(  330) = (  -0.0833333   0.1202813   0.0000000), wk =   0.0017361
        k(  331) = (   0.1458333   0.0120281   0.0000000), wk =   0.0017361
        k(  332) = (  -0.1041667   0.1323094   0.0000000), wk =   0.0017361
        k(  333) = (   0.1666667   0.0240563   0.0000000), wk =   0.0017361
        k(  334) = (  -0.1250000   0.1443376   0.0000000), wk =   0.0017361
        k(  335) = (   0.1875000   0.0360844   0.0000000), wk =   0.0017361
        k(  336) = (  -0.1458333   0.1563657   0.0000000), wk =   0.0017361
        k(  337) = (   0.2083333   0.0481125   0.0000000), wk =   0.0017361
        k(  338) = (  -0.1666667   0.1683938   0.0000000), wk =   0.0017361
        k(  339) = (   0.2291667   0.0601407   0.0000000), wk =   0.0017361
        k(  340) = (  -0.1875000   0.1804220   0.0000000), wk =   0.0017361
        k(  341) = (   0.2500000   0.0721688   0.0000000), wk =   0.0017361
        k(  342) = (  -0.2083333   0.1924501   0.0000000), wk =   0.0017361
        k(  343) = (   0.2708333   0.0841969   0.0000000), wk =   0.0017361
        k(  344) = (  -0.2291667   0.2044782   0.0000000), wk =   0.0017361
        k(  345) = (   0.2916667   0.0962250   0.0000000), wk =   0.0017361
        k(  346) = (  -0.2500000   0.2165064   0.0000000), wk =   0.0017361
        k(  347) = (   0.3125000   0.1082532   0.0000000), wk =   0.0017361
        k(  348) = (  -0.2708333   0.2285345   0.0000000), wk =   0.0017361
        k(  349) = (   0.3333333   0.1202813   0.0000000), wk =   0.0017361
        k(  350) = (  -0.2916667   0.2405626   0.0000000), wk =   0.0017361
        k(  351) = (   0.3541667   0.1323094   0.0000000), wk =   0.0017361
        k(  352) = (  -0.3125000   0.2525907   0.0000000), wk =   0.0017361
        k(  353) = (   0.3750000   0.1443376   0.0000000), wk =   0.0017361
        k(  354) = (  -0.3333333   0.2646189   0.0000000), wk =   0.0017361
        k(  355) = (   0.3958333   0.1563657   0.0000000), wk =   0.0017361
        k(  356) = (  -0.3541667   0.2766470   0.0000000), wk =   0.0017361
        k(  357) = (   0.4166667   0.1683938   0.0000000), wk =   0.0017361
        k(  358) = (  -0.3750000   0.2886751   0.0000000), wk =   0.0017361
        k(  359) = (   0.4375000   0.1804220   0.0000000), wk =   0.0017361
        k(  360) = (  -0.3958333   0.3007033   0.0000000), wk =   0.0017361
        k(  361) = (   0.4583333   0.1924501   0.0000000), wk =   0.0017361
        k(  362) = (  -0.4166667   0.3127314   0.0000000), wk =   0.0017361
        k(  363) = (   0.4791667   0.2044782   0.0000000), wk =   0.0017361
        k(  364) = (  -0.4375000   0.3247595   0.0000000), wk =   0.0017361
        k(  365) = (   0.5000000   0.2165064   0.0000000), wk =   0.0017361
        k(  366) = (  -0.4583333   0.3367877   0.0000000), wk =   0.0017361
        k(  367) = (   0.5208333   0.2285345   0.0000000), wk =   0.0017361
        k(  368) = (   0.1666667  -0.0000000   0.0000000), wk =   0.0008681
        k(  369) = (  -0.1041667   0.1563657   0.0000000), wk =   0.0017361
        k(  370) = (   0.1875000   0.0120281   0.0000000), wk =   0.0017361
        k(  371) = (  -0.1250000   0.1683938   0.0000000), wk =   0.0017361
        k(  372) = (   0.2083333   0.0240563   0.0000000), wk =   0.0017361
        k(  373) = (  -0.1458333   0.1804220   0.0000000), wk =   0.0017361
        k(  374) = (   0.2291667   0.0360844   0.0000000), wk =   0.0017361
        k(  375) = (  -0.1666667   0.1924501   0.0000000), wk =   0.0017361
        k(  376) = (   0.2500000   0.0481125   0.0000000), wk =   0.0017361
        k(  377) = (  -0.1875000   0.2044782   0.0000000), wk =   0.0017361
        k(  378) = (   0.2708333   0.0601407   0.0000000), wk =   0.0017361
        k(  379) = (  -0.2083333   0.2165064   0.0000000), wk =   0.0017361
        k(  380) = (   0.2916667   0.0721688   0.0000000), wk =   0.0017361
        k(  381) = (  -0.2291667   0.2285345   0.0000000), wk =   0.0017361
        k(  382) = (   0.3125000   0.0841969   0.0000000), wk =   0.0017361
        k(  383) = (  -0.2500000   0.2405626   0.0000000), wk =   0.0017361
        k(  384) = (   0.3333333   0.0962250   0.0000000), wk =   0.0017361
        k(  385) = (  -0.2708333   0.2525907   0.0000000), wk =   0.0017361
        k(  386) = (   0.3541667   0.1082532   0.0000000), wk =   0.0017361
        k(  387) = (  -0.2916667   0.2646189   0.0000000), wk =   0.0017361
        k(  388) = (   0.3750000   0.1202813   0.0000000), wk =   0.0017361
        k(  389) = (  -0.3125000   0.2766470   0.0000000), wk =   0.0017361
        k(  390) = (   0.3958333   0.1323094   0.0000000), wk =   0.0017361
        k(  391) = (  -0.3333333   0.2886751   0.0000000), wk =   0.0017361
        k(  392) = (   0.4166667   0.1443376   0.0000000), wk =   0.0017361
        k(  393) = (  -0.3541667   0.3007033   0.0000000), wk =   0.0017361
        k(  394) = (   0.4375000   0.1563657   0.0000000), wk =   0.0017361
        k(  395) = (  -0.3750000   0.3127314   0.0000000), wk =   0.0017361
        k(  396) = (   0.4583333   0.1683938   0.0000000), wk =   0.0017361
        k(  397) = (  -0.3958333   0.3247595   0.0000000), wk =   0.0017361
        k(  398) = (   0.4791667   0.1804220   0.0000000), wk =   0.0017361
        k(  399) = (  -0.4166667   0.3367877   0.0000000), wk =   0.0017361
        k(  400) = (   0.5000000   0.1924501   0.0000000), wk =   0.0017361
        k(  401) = (  -0.4375000   0.3488158   0.0000000), wk =   0.0017361
        k(  402) = (   0.5208333   0.2044782   0.0000000), wk =   0.0017361
        k(  403) = (  -0.4583333   0.3608439   0.0000000), wk =   0.0017361
        k(  404) = (   0.2083333  -0.0000000   0.0000000), wk =   0.0008681
        k(  405) = (  -0.1250000   0.1924501   0.0000000), wk =   0.0017361
        k(  406) = (   0.2291667   0.0120281   0.0000000), wk =   0.0017361
        k(  407) = (  -0.1458333   0.2044782   0.0000000), wk =   0.0017361
        k(  408) = (   0.2500000   0.0240563   0.0000000), wk =   0.0017361
        k(  409) = (  -0.1666667   0.2165064   0.0000000), wk =   0.0017361
        k(  410) = (   0.2708333   0.0360844   0.0000000), wk =   0.0017361
        k(  411) = (  -0.1875000   0.2285345   0.0000000), wk =   0.0017361
        k(  412) = (   0.2916667   0.0481125   0.0000000), wk =   0.0017361
        k(  413) = (  -0.2083333   0.2405626   0.0000000), wk =   0.0017361
        k(  414) = (   0.3125000   0.0601407   0.0000000), wk =   0.0017361
        k(  415) = (  -0.2291667   0.2525907   0.0000000), wk =   0.0017361
        k(  416) = (   0.3333333   0.0721688   0.0000000), wk =   0.0017361
        k(  417) = (  -0.2500000   0.2646189   0.0000000), wk =   0.0017361
        k(  418) = (   0.3541667   0.0841969   0.0000000), wk =   0.0017361
        k(  419) = (  -0.2708333   0.2766470   0.0000000), wk =   0.0017361
        k(  420) = (   0.3750000   0.0962250   0.0000000), wk =   0.0017361
        k(  421) = (  -0.2916667   0.2886751   0.0000000), wk =   0.0017361
        k(  422) = (   0.3958333   0.1082532   0.0000000), wk =   0.0017361
        k(  423) = (  -0.3125000   0.3007033   0.0000000), wk =   0.0017361
        k(  424) = (   0.4166667   0.1202813   0.0000000), wk =   0.0017361
        k(  425) = (  -0.3333333   0.3127314   0.0000000), wk =   0.0017361
        k(  426) = (   0.4375000   0.1323094   0.0000000), wk =   0.0017361
        k(  427) = (  -0.3541667   0.3247595   0.0000000), wk =   0.0017361
        k(  428) = (   0.4583333   0.1443376   0.0000000), wk =   0.0017361
        k(  429) = (  -0.3750000   0.3367877   0.0000000), wk =   0.0017361
        k(  430) = (   0.4791667   0.1563657   0.0000000), wk =   0.0017361
        k(  431) = (  -0.3958333   0.3488158   0.0000000), wk =   0.0017361
        k(  432) = (   0.5000000   0.1683938   0.0000000), wk =   0.0017361
        k(  433) = (  -0.4166667   0.3608439   0.0000000), wk =   0.0017361
        k(  434) = (   0.5208333   0.1804220   0.0000000), wk =   0.0017361
        k(  435) = (  -0.4375000   0.3728720   0.0000000), wk =   0.0017361
        k(  436) = (   0.5416667   0.1924501   0.0000000), wk =   0.0017361
        k(  437) = (   0.2500000  -0.0000000   0.0000000), wk =   0.0008681
        k(  438) = (  -0.1458333   0.2285345   0.0000000), wk =   0.0017361
        k(  439) = (   0.2708333   0.0120281   0.0000000), wk =   0.0017361
        k(  440) = (  -0.1666667   0.2405626   0.0000000), wk =   0.0017361
        k(  441) = (   0.2916667   0.0240563   0.0000000), wk =   0.0017361
        k(  442) = (  -0.1875000   0.2525907   0.0000000), wk =   0.0017361
        k(  443) = (   0.3125000   0.0360844   0.0000000), wk =   0.0017361
        k(  444) = (  -0.2083333   0.2646189   0.0000000), wk =   0.0017361
        k(  445) = (   0.3333333   0.0481125   0.0000000), wk =   0.0017361
        k(  446) = (  -0.2291667   0.2766470   0.0000000), wk =   0.0017361
        k(  447) = (   0.3541667   0.0601407   0.0000000), wk =   0.0017361
        k(  448) = (  -0.2500000   0.2886751   0.0000000), wk =   0.0017361
        k(  449) = (   0.3750000   0.0721688   0.0000000), wk =   0.0017361
        k(  450) = (  -0.2708333   0.3007033   0.0000000), wk =   0.0017361
        k(  451) = (   0.3958333   0.0841969   0.0000000), wk =   0.0017361
        k(  452) = (  -0.2916667   0.3127314   0.0000000), wk =   0.0017361
        k(  453) = (   0.4166667   0.0962250   0.0000000), wk =   0.0017361
        k(  454) = (  -0.3125000   0.3247595   0.0000000), wk =   0.0017361
        k(  455) = (   0.4375000   0.1082532   0.0000000), wk =   0.0017361
        k(  456) = (  -0.3333333   0.3367877   0.0000000), wk =   0.0017361
        k(  457) = (   0.4583333   0.1202813   0.0000000), wk =   0.0017361
        k(  458) = (  -0.3541667   0.3488158   0.0000000), wk =   0.0017361
        k(  459) = (   0.4791667   0.1323094   0.0000000), wk =   0.0017361
        k(  460) = (  -0.3750000   0.3608439   0.0000000), wk =   0.0017361
        k(  461) = (   0.5000000   0.1443376   0.0000000), wk =   0.0017361
        k(  462) = (  -0.3958333   0.3728720   0.0000000), wk =   0.0017361
        k(  463) = (   0.5208333   0.1563657   0.0000000), wk =   0.0017361
        k(  464) = (  -0.4166667   0.3849002   0.0000000), wk =   0.0017361
        k(  465) = (   0.5416667   0.1683938   0.0000000), wk =   0.0017361
        k(  466) = (  -0.4375000   0.3969283   0.0000000), wk =   0.0017361
        k(  467) = (   0.2916667  -0.0000000   0.0000000), wk =   0.0008681
        k(  468) = (  -0.1666667   0.2646189   0.0000000), wk =   0.0017361
        k(  469) = (   0.3125000   0.0120281   0.0000000), wk =   0.0017361
        k(  470) = (  -0.1875000   0.2766470   0.0000000), wk =   0.0017361
        k(  471) = (   0.3333333   0.0240563   0.0000000), wk =   0.0017361
        k(  472) = (  -0.2083333   0.2886751   0.0000000), wk =   0.0017361
        k(  473) = (   0.3541667   0.0360844   0.0000000), wk =   0.0017361
        k(  474) = (  -0.2291667   0.3007033   0.0000000), wk =   0.0017361
        k(  475) = (   0.3750000   0.0481125   0.0000000), wk =   0.0017361
        k(  476) = (  -0.2500000   0.3127314   0.0000000), wk =   0.0017361
        k(  477) = (   0.3958333   0.0601407   0.0000000), wk =   0.0017361
        k(  478) = (  -0.2708333   0.3247595   0.0000000), wk =   0.0017361
        k(  479) = (   0.4166667   0.0721688   0.0000000), wk =   0.0017361
        k(  480) = (  -0.2916667   0.3367877   0.0000000), wk =   0.0017361
        k(  481) = (   0.4375000   0.0841969   0.0000000), wk =   0.0017361
        k(  482) = (  -0.3125000   0.3488158   0.0000000), wk =   0.0017361
        k(  483) = (   0.4583333   0.0962250   0.0000000), wk =   0.0017361
        k(  484) = (  -0.3333333   0.3608439   0.0000000), wk =   0.0017361
        k(  485) = (   0.4791667   0.1082532   0.0000000), wk =   0.0017361
        k(  486) = (  -0.3541667   0.3728720   0.0000000), wk =   0.0017361
        k(  487) = (   0.5000000   0.1202813   0.0000000), wk =   0.0017361
        k(  488) = (  -0.3750000   0.3849002   0.0000000), wk =   0.0017361
        k(  489) = (   0.5208333   0.1323094   0.0000000), wk =   0.0017361
        k(  490) = (  -0.3958333   0.3969283   0.0000000), wk =   0.0017361
        k(  491) = (   0.5416667   0.1443376   0.0000000), wk =   0.0017361
        k(  492) = (  -0.4166667   0.4089564   0.0000000), wk =   0.0017361
        k(  493) = (   0.5625000   0.1563657   0.0000000), wk =   0.0017361
        k(  494) = (   0.3333333  -0.0000000   0.0000000), wk =   0.0008681
        k(  495) = (  -0.1875000   0.3007033   0.0000000), wk =   0.0017361
        k(  496) = (   0.3541667   0.0120281   0.0000000), wk =   0.0017361
        k(  497) = (  -0.2083333   0.3127314   0.0000000), wk =   0.0017361
        k(  498) = (   0.3750000   0.0240563   0.0000000), wk =   0.0017361
        k(  499) = (  -0.2291667   0.3247595   0.0000000), wk =   0.0017361
        k(  500) = (   0.3958333   0.0360844   0.0000000), wk =   0.0017361
        k(  501) = (  -0.2500000   0.3367877   0.0000000), wk =   0.0017361
        k(  502) = (   0.4166667   0.0481125   0.0000000), wk =   0.0017361
        k(  503) = (  -0.2708333   0.3488158   0.0000000), wk =   0.0017361
        k(  504) = (   0.4375000   0.0601407   0.0000000), wk =   0.0017361
        k(  505) = (  -0.2916667   0.3608439   0.0000000), wk =   0.0017361
        k(  506) = (   0.4583333   0.0721688   0.0000000), wk =   0.0017361
        k(  507) = (  -0.3125000   0.3728720   0.0000000), wk =   0.0017361
        k(  508) = (   0.4791667   0.0841969   0.0000000), wk =   0.0017361
        k(  509) = (  -0.3333333   0.3849002   0.0000000), wk =   0.0017361
        k(  510) = (   0.5000000   0.0962250   0.0000000), wk =   0.0017361
        k(  511) = (  -0.3541667   0.3969283   0.0000000), wk =   0.0017361
        k(  512) = (   0.5208333   0.1082532   0.0000000), wk =   0.0017361
        k(  513) = (  -0.3750000   0.4089564   0.0000000), wk =   0.0017361
        k(  514) = (   0.5416667   0.1202813   0.0000000), wk =   0.0017361
        k(  515) = (  -0.3958333   0.4209846   0.0000000), wk =   0.0017361
        k(  516) = (   0.5625000   0.1323094   0.0000000), wk =   0.0017361
        k(  517) = (  -0.4166667   0.4330127   0.0000000), wk =   0.0017361
        k(  518) = (   0.3750000  -0.0000000   0.0000000), wk =   0.0008681
        k(  519) = (  -0.2083333   0.3367877   0.0000000), wk =   0.0017361
        k(  520) = (   0.3958333   0.0120281   0.0000000), wk =   0.0017361
        k(  521) = (  -0.2291667   0.3488158   0.0000000), wk =   0.0017361
        k(  522) = (   0.4166667   0.0240563   0.0000000), wk =   0.0017361
        k(  523) = (  -0.2500000   0.3608439   0.0000000), wk =   0.0017361
        k(  524) = (   0.4375000   0.0360844   0.0000000), wk =   0.0017361
        k(  525) = (  -0.2708333   0.3728720   0.0000000), wk =   0.0017361
        k(  526) = (   0.4583333   0.0481125   0.0000000), wk =   0.0017361
        k(  527) = (  -0.2916667   0.3849002   0.0000000), wk =   0.0017361
        k(  528) = (   0.4791667   0.0601407   0.0000000), wk =   0.0017361
        k(  529) = (  -0.3125000   0.3969283   0.0000000), wk =   0.0017361
        k(  530) = (   0.5000000   0.0721688   0.0000000), wk =   0.0017361
        k(  531) = (  -0.3333333   0.4089564   0.0000000), wk =   0.0017361
        k(  532) = (   0.5208333   0.0841969   0.0000000), wk =   0.0017361
        k(  533) = (  -0.3541667   0.4209846   0.0000000), wk =   0.0017361
        k(  534) = (   0.5416667   0.0962250   0.0000000), wk =   0.0017361
        k(  535) = (  -0.3750000   0.4330127   0.0000000), wk =   0.0017361
        k(  536) = (   0.5625000   0.1082532   0.0000000), wk =   0.0017361
        k(  537) = (  -0.3958333   0.4450408   0.0000000), wk =   0.0017361
        k(  538) = (   0.5833333   0.1202813   0.0000000), wk =   0.0017361
        k(  539) = (   0.4166667  -0.0000000   0.0000000), wk =   0.0008681
        k(  540) = (  -0.2291667   0.3728720   0.0000000), wk =   0.0017361
        k(  541) = (   0.4375000   0.0120281   0.0000000), wk =   0.0017361
        k(  542) = (  -0.2500000   0.3849002   0.0000000), wk =   0.0017361
        k(  543) = (   0.4583333   0.0240563   0.0000000), wk =   0.0017361
        k(  544) = (  -0.2708333   0.3969283   0.0000000), wk =   0.0017361
        k(  545) = (   0.4791667   0.0360844   0.0000000), wk =   0.0017361
        k(  546) = (  -0.2916667   0.4089564   0.0000000), wk =   0.0017361
        k(  547) = (   0.5000000   0.0481125   0.0000000), wk =   0.0017361
        k(  548) = (  -0.3125000   0.4209846   0.0000000), wk =   0.0017361
        k(  549) = (   0.5208333   0.0601407   0.0000000), wk =   0.0017361
        k(  550) = (  -0.3333333   0.4330127   0.0000000), wk =   0.0017361
        k(  551) = (   0.5416667   0.0721688   0.0000000), wk =   0.0017361
        k(  552) = (  -0.3541667   0.4450408   0.0000000), wk =   0.0017361
        k(  553) = (   0.5625000   0.0841969   0.0000000), wk =   0.0017361
        k(  554) = (  -0.3750000   0.4570690   0.0000000), wk =   0.0017361
        k(  555) = (   0.5833333   0.0962250   0.0000000), wk =   0.0017361
        k(  556) = (  -0.3958333   0.4690971   0.0000000), wk =   0.0017361
        k(  557) = (   0.4583333  -0.0000000   0.0000000), wk =   0.0008681
        k(  558) = (  -0.2500000   0.4089564   0.0000000), wk =   0.0017361
        k(  559) = (   0.4791667   0.0120281   0.0000000), wk =   0.0017361
        k(  560) = (  -0.2708333   0.4209846   0.0000000), wk =   0.0017361
        k(  561) = (   0.5000000   0.0240563   0.0000000), wk =   0.0017361
        k(  562) = (  -0.2916667   0.4330127   0.0000000), wk =   0.0017361
        k(  563) = (   0.5208333   0.0360844   0.0000000), wk =   0.0017361
        k(  564) = (  -0.3125000   0.4450408   0.0000000), wk =   0.0017361
        k(  565) = (   0.5416667   0.0481125   0.0000000), wk =   0.0017361
        k(  566) = (  -0.3333333   0.4570690   0.0000000), wk =   0.0017361
        k(  567) = (   0.5625000   0.0601407   0.0000000), wk =   0.0017361
        k(  568) = (  -0.3541667   0.4690971   0.0000000), wk =   0.0017361
        k(  569) = (   0.5833333   0.0721688   0.0000000), wk =   0.0017361
        k(  570) = (  -0.3750000   0.4811252   0.0000000), wk =   0.0017361
        k(  571) = (   0.6041667   0.0841969   0.0000000), wk =   0.0017361
        k(  572) = (   0.5000000  -0.0000000   0.0000000), wk =   0.0008681
        k(  573) = (  -0.2708333   0.4450408   0.0000000), wk =   0.0017361
        k(  574) = (   0.5208333   0.0120281   0.0000000), wk =   0.0017361
        k(  575) = (  -0.2916667   0.4570690   0.0000000), wk =   0.0017361
        k(  576) = (   0.5416667   0.0240563   0.0000000), wk =   0.0017361
        k(  577) = (  -0.3125000   0.4690971   0.0000000), wk =   0.0017361
        k(  578) = (   0.5625000   0.0360844   0.0000000), wk =   0.0017361
        k(  579) = (  -0.3333333   0.4811252   0.0000000), wk =   0.0017361
        k(  580) = (   0.5833333   0.0481125   0.0000000), wk =   0.0017361
        k(  581) = (  -0.3541667   0.4931534   0.0000000), wk =   0.0017361
        k(  582) = (   0.6041667   0.0601407   0.0000000), wk =   0.0017361
        k(  583) = (  -0.3750000   0.5051815   0.0000000), wk =   0.0017361
        k(  584) = (   0.5416667  -0.0000000   0.0000000), wk =   0.0008681
        k(  585) = (  -0.2916667   0.4811252   0.0000000), wk =   0.0017361
        k(  586) = (   0.5625000   0.0120281   0.0000000), wk =   0.0017361
        k(  587) = (  -0.3125000   0.4931534   0.0000000), wk =   0.0017361
        k(  588) = (   0.5833333   0.0240563   0.0000000), wk =   0.0017361
        k(  589) = (  -0.3333333   0.5051815   0.0000000), wk =   0.0017361
        k(  590) = (   0.6041667   0.0360844   0.0000000), wk =   0.0017361
        k(  591) = (  -0.3541667   0.5172096   0.0000000), wk =   0.0017361
        k(  592) = (   0.6250000   0.0481125   0.0000000), wk =   0.0017361
        k(  593) = (   0.5833333  -0.0000000   0.0000000), wk =   0.0008681
        k(  594) = (  -0.3125000   0.5172096   0.0000000), wk =   0.0017361
        k(  595) = (   0.6041667   0.0120281   0.0000000), wk =   0.0017361
        k(  596) = (  -0.3333333   0.5292377   0.0000000), wk =   0.0017361
        k(  597) = (   0.6250000   0.0240563   0.0000000), wk =   0.0017361
        k(  598) = (  -0.3541667   0.5412659   0.0000000), wk =   0.0017361
        k(  599) = (   0.6250000  -0.0000000   0.0000000), wk =   0.0008681
        k(  600) = (  -0.3333333   0.5532940   0.0000000), wk =   0.0017361
        k(  601) = (   0.6458333   0.0120281   0.0000000), wk =   0.0017361
        k(  602) = (   0.0000000   0.0000000   0.0000000), wk =   0.0004340
        k(  603) = (   0.0000000   0.0240563   0.0000000), wk =   0.0008681
        k(  604) = (   0.0000000   0.0481125   0.0000000), wk =   0.0008681
        k(  605) = (   0.0000000   0.0721688   0.0000000), wk =   0.0008681
        k(  606) = (   0.0000000   0.0962250   0.0000000), wk =   0.0008681
        k(  607) = (   0.0000000   0.1202813   0.0000000), wk =   0.0008681
        k(  608) = (   0.0000000   0.1443376   0.0000000), wk =   0.0008681
        k(  609) = (   0.0000000   0.1683938   0.0000000), wk =   0.0008681
        k(  610) = (   0.0000000   0.1924501   0.0000000), wk =   0.0008681
        k(  611) = (   0.0000000   0.2165064   0.0000000), wk =   0.0008681
        k(  612) = (   0.0000000   0.2405626   0.0000000), wk =   0.0008681
        k(  613) = (   0.0000000   0.2646189   0.0000000), wk =   0.0008681
        k(  614) = (   0.0000000   0.2886751   0.0000000), wk =   0.0008681
        k(  615) = (   0.0000000   0.3127314   0.0000000), wk =   0.0008681
        k(  616) = (   0.0000000   0.3367877   0.0000000), wk =   0.0008681
        k(  617) = (   0.0000000   0.3608439   0.0000000), wk =   0.0008681
        k(  618) = (   0.0000000   0.3849002   0.0000000), wk =   0.0008681
        k(  619) = (   0.0000000   0.4089564   0.0000000), wk =   0.0008681
        k(  620) = (   0.0000000   0.4330127   0.0000000), wk =   0.0008681
        k(  621) = (   0.0000000   0.4570690   0.0000000), wk =   0.0008681
        k(  622) = (   0.0000000   0.4811252   0.0000000), wk =   0.0008681
        k(  623) = (   0.0000000   0.5051815   0.0000000), wk =   0.0008681
        k(  624) = (   0.0000000   0.5292377   0.0000000), wk =   0.0008681
        k(  625) = (   0.0000000   0.5532940   0.0000000), wk =   0.0008681
        k(  626) = (   0.0000000  -0.5773503   0.0000000), wk =   0.0004340
        k(  627) = (   0.0208333   0.0360844   0.0000000), wk =   0.0017361
        k(  628) = (   0.0208333   0.0601407   0.0000000), wk =   0.0017361
        k(  629) = (   0.0208333   0.0841969   0.0000000), wk =   0.0017361
        k(  630) = (   0.0208333   0.1082532   0.0000000), wk =   0.0017361
        k(  631) = (   0.0208333   0.1323094   0.0000000), wk =   0.0017361
        k(  632) = (   0.0208333   0.1563657   0.0000000), wk =   0.0017361
        k(  633) = (   0.0208333   0.1804220   0.0000000), wk =   0.0017361
        k(  634) = (   0.0208333   0.2044782   0.0000000), wk =   0.0017361
        k(  635) = (   0.0208333   0.2285345   0.0000000), wk =   0.0017361
        k(  636) = (   0.0208333   0.2525907   0.0000000), wk =   0.0017361
        k(  637) = (   0.0208333   0.2766470   0.0000000), wk =   0.0017361
        k(  638) = (   0.0208333   0.3007033   0.0000000), wk =   0.0017361
        k(  639) = (   0.0208333   0.3247595   0.0000000), wk =   0.0017361
        k(  640) = (   0.0208333   0.3488158   0.0000000), wk =   0.0017361
        k(  641) = (   0.0208333   0.3728720   0.0000000), wk =   0.0017361
        k(  642) = (   0.0208333   0.3969283   0.0000000), wk =   0.0017361
        k(  643) = (   0.0208333   0.4209846   0.0000000), wk =   0.0017361
        k(  644) = (   0.0208333   0.4450408   0.0000000), wk =   0.0017361
        k(  645) = (   0.0208333   0.4690971   0.0000000), wk =   0.0017361
        k(  646) = (   0.0208333   0.4931534   0.0000000), wk =   0.0017361
        k(  647) = (   0.0208333   0.5172096   0.0000000), wk =   0.0017361
        k(  648) = (   0.0208333   0.5412659   0.0000000), wk =   0.0017361
        k(  649) = (   0.0208333   0.5653221   0.0000000), wk =   0.0017361
        k(  650) = (   0.0416667   0.0721688   0.0000000), wk =   0.0017361
        k(  651) = (   0.0416667   0.0962250   0.0000000), wk =   0.0017361
        k(  652) = (   0.0416667   0.1202813   0.0000000), wk =   0.0017361
        k(  653) = (   0.0416667   0.1443376   0.0000000), wk =   0.0017361
        k(  654) = (   0.0416667   0.1683938   0.0000000), wk =   0.0017361
        k(  655) = (   0.0416667   0.1924501   0.0000000), wk =   0.0017361
        k(  656) = (   0.0416667   0.2165064   0.0000000), wk =   0.0017361
        k(  657) = (   0.0416667   0.2405626   0.0000000), wk =   0.0017361
        k(  658) = (   0.0416667   0.2646189   0.0000000), wk =   0.0017361
        k(  659) = (   0.0416667   0.2886751   0.0000000), wk =   0.0017361
        k(  660) = (   0.0416667   0.3127314   0.0000000), wk =   0.0017361
        k(  661) = (   0.0416667   0.3367877   0.0000000), wk =   0.0017361
        k(  662) = (   0.0416667   0.3608439   0.0000000), wk =   0.0017361
        k(  663) = (   0.0416667   0.3849002   0.0000000), wk =   0.0017361
        k(  664) = (   0.0416667   0.4089564   0.0000000), wk =   0.0017361
        k(  665) = (   0.0416667   0.4330127   0.0000000), wk =   0.0017361
        k(  666) = (   0.0416667   0.4570690   0.0000000), wk =   0.0017361
        k(  667) = (   0.0416667   0.4811252   0.0000000), wk =   0.0017361
        k(  668) = (   0.0416667   0.5051815   0.0000000), wk =   0.0017361
        k(  669) = (   0.0416667   0.5292377   0.0000000), wk =   0.0017361
        k(  670) = (   0.0416667   0.5532940   0.0000000), wk =   0.0017361
        k(  671) = (   0.0416667   0.5773503   0.0000000), wk =   0.0008681
        k(  672) = (   0.0625000   0.1082532   0.0000000), wk =   0.0017361
        k(  673) = (   0.0625000   0.1323094   0.0000000), wk =   0.0017361
        k(  674) = (   0.0625000   0.1563657   0.0000000), wk =   0.0017361
        k(  675) = (   0.0625000   0.1804220   0.0000000), wk =   0.0017361
        k(  676) = (   0.0625000   0.2044782   0.0000000), wk =   0.0017361
        k(  677) = (   0.0625000   0.2285345   0.0000000), wk =   0.0017361
        k(  678) = (   0.0625000   0.2525907   0.0000000), wk =   0.0017361
        k(  679) = (   0.0625000   0.2766470   0.0000000), wk =   0.0017361
        k(  680) = (   0.0625000   0.3007033   0.0000000), wk =   0.0017361
        k(  681) = (   0.0625000   0.3247595   0.0000000), wk =   0.0017361
        k(  682) = (   0.0625000   0.3488158   0.0000000), wk =   0.0017361
        k(  683) = (   0.0625000   0.3728720   0.0000000), wk =   0.0017361
        k(  684) = (   0.0625000   0.3969283   0.0000000), wk =   0.0017361
        k(  685) = (   0.0625000   0.4209846   0.0000000), wk =   0.0017361
        k(  686) = (   0.0625000   0.4450408   0.0000000), wk =   0.0017361
        k(  687) = (   0.0625000   0.4690971   0.0000000), wk =   0.0017361
        k(  688) = (   0.0625000   0.4931534   0.0000000), wk =   0.0017361
        k(  689) = (   0.0625000   0.5172096   0.0000000), wk =   0.0017361
        k(  690) = (   0.0625000   0.5412659   0.0000000), wk =   0.0017361
        k(  691) = (   0.0625000   0.5653221   0.0000000), wk =   0.0017361
        k(  692) = (   0.0833333   0.1443376   0.0000000), wk =   0.0017361
        k(  693) = (   0.0833333   0.1683938   0.0000000), wk =   0.0017361
        k(  694) = (   0.0833333   0.1924501   0.0000000), wk =   0.0017361
        k(  695) = (   0.0833333   0.2165064   0.0000000), wk =   0.0017361
        k(  696) = (   0.0833333   0.2405626   0.0000000), wk =   0.0017361
        k(  697) = (   0.0833333   0.2646189   0.0000000), wk =   0.0017361
        k(  698) = (   0.0833333   0.2886751   0.0000000), wk =   0.0017361
        k(  699) = (   0.0833333   0.3127314   0.0000000), wk =   0.0017361
        k(  700) = (   0.0833333   0.3367877   0.0000000), wk =   0.0017361
        k(  701) = (   0.0833333   0.3608439   0.0000000), wk =   0.0017361
        k(  702) = (   0.0833333   0.3849002   0.0000000), wk =   0.0017361
        k(  703) = (   0.0833333   0.4089564   0.0000000), wk =   0.0017361
        k(  704) = (   0.0833333   0.4330127   0.0000000), wk =   0.0017361
        k(  705) = (   0.0833333   0.4570690   0.0000000), wk =   0.0017361
        k(  706) = (   0.0833333   0.4811252   0.0000000), wk =   0.0017361
        k(  707) = (   0.0833333   0.5051815   0.0000000), wk =   0.0017361
        k(  708) = (   0.0833333   0.5292377   0.0000000), wk =   0.0017361
        k(  709) = (   0.0833333   0.5532940   0.0000000), wk =   0.0017361
        k(  710) = (   0.0833333   0.5773503   0.0000000), wk =   0.0008681
        k(  711) = (   0.1041667   0.1804220   0.0000000), wk =   0.0017361
        k(  712) = (   0.1041667   0.2044782   0.0000000), wk =   0.0017361
        k(  713) = (   0.1041667   0.2285345   0.0000000), wk =   0.0017361
        k(  714) = (   0.1041667   0.2525907   0.0000000), wk =   0.0017361
        k(  715) = (   0.1041667   0.2766470   0.0000000), wk =   0.0017361
        k(  716) = (   0.1041667   0.3007033   0.0000000), wk =   0.0017361
        k(  717) = (   0.1041667   0.3247595   0.0000000), wk =   0.0017361
        k(  718) = (   0.1041667   0.3488158   0.0000000), wk =   0.0017361
        k(  719) = (   0.1041667   0.3728720   0.0000000), wk =   0.0017361
        k(  720) = (   0.1041667   0.3969283   0.0000000), wk =   0.0017361
        k(  721) = (   0.1041667   0.4209846   0.0000000), wk =   0.0017361
        k(  722) = (   0.1041667   0.4450408   0.0000000), wk =   0.0017361
        k(  723) = (   0.1041667   0.4690971   0.0000000), wk =   0.0017361
        k(  724) = (   0.1041667   0.4931534   0.0000000), wk =   0.0017361
        k(  725) = (   0.1041667   0.5172096   0.0000000), wk =   0.0017361
        k(  726) = (   0.1041667   0.5412659   0.0000000), wk =   0.0017361
        k(  727) = (   0.1041667   0.5653221   0.0000000), wk =   0.0017361
        k(  728) = (   0.1250000   0.2165064   0.0000000), wk =   0.0017361
        k(  729) = (   0.1250000   0.2405626   0.0000000), wk =   0.0017361
        k(  730) = (   0.1250000   0.2646189   0.0000000), wk =   0.0017361
        k(  731) = (   0.1250000   0.2886751   0.0000000), wk =   0.0017361
        k(  732) = (   0.1250000   0.3127314   0.0000000), wk =   0.0017361
        k(  733) = (   0.1250000   0.3367877   0.0000000), wk =   0.0017361
        k(  734) = (   0.1250000   0.3608439   0.0000000), wk =   0.0017361
        k(  735) = (   0.1250000   0.3849002   0.0000000), wk =   0.0017361
        k(  736) = (   0.1250000   0.4089564   0.0000000), wk =   0.0017361
        k(  737) = (   0.1250000   0.4330127   0.0000000), wk =   0.0017361
        k(  738) = (   0.1250000   0.4570690   0.0000000), wk =   0.0017361
        k(  739) = (   0.1250000   0.4811252   0.0000000), wk =   0.0017361
        k(  740) = (   0.1250000   0.5051815   0.0000000), wk =   0.0017361
        k(  741) = (   0.1250000   0.5292377   0.0000000), wk =   0.0017361
        k(  742) = (   0.1250000   0.5532940   0.0000000), wk =   0.0017361
        k(  743) = (   0.1250000   0.5773503   0.0000000), wk =   0.0008681
        k(  744) = (   0.1458333   0.2525907   0.0000000), wk =   0.0017361
        k(  745) = (   0.1458333   0.2766470   0.0000000), wk =   0.0017361
        k(  746) = (   0.1458333   0.3007033   0.0000000), wk =   0.0017361
        k(  747) = (   0.1458333   0.3247595   0.0000000), wk =   0.0017361
        k(  748) = (   0.1458333   0.3488158   0.0000000), wk =   0.0017361
        k(  749) = (   0.1458333   0.3728720   0.0000000), wk =   0.0017361
        k(  750) = (   0.1458333   0.3969283   0.0000000), wk =   0.0017361
        k(  751) = (   0.1458333   0.4209846   0.0000000), wk =   0.0017361
        k(  752) = (   0.1458333   0.4450408   0.0000000), wk =   0.0017361
        k(  753) = (   0.1458333   0.4690971   0.0000000), wk =   0.0017361
        k(  754) = (   0.1458333   0.4931534   0.0000000), wk =   0.0017361
        k(  755) = (   0.1458333   0.5172096   0.0000000), wk =   0.0017361
        k(  756) = (   0.1458333   0.5412659   0.0000000), wk =   0.0017361
        k(  757) = (   0.1458333   0.5653221   0.0000000), wk =   0.0017361
        k(  758) = (   0.1666667   0.2886751   0.0000000), wk =   0.0017361
        k(  759) = (   0.1666667   0.3127314   0.0000000), wk =   0.0017361
        k(  760) = (   0.1666667   0.3367877   0.0000000), wk =   0.0017361
        k(  761) = (   0.1666667   0.3608439   0.0000000), wk =   0.0017361
        k(  762) = (   0.1666667   0.3849002   0.0000000), wk =   0.0017361
        k(  763) = (   0.1666667   0.4089564   0.0000000), wk =   0.0017361
        k(  764) = (   0.1666667   0.4330127   0.0000000), wk =   0.0017361
        k(  765) = (   0.1666667   0.4570690   0.0000000), wk =   0.0017361
        k(  766) = (   0.1666667   0.4811252   0.0000000), wk =   0.0017361
        k(  767) = (   0.1666667   0.5051815   0.0000000), wk =   0.0017361
        k(  768) = (   0.1666667   0.5292377   0.0000000), wk =   0.0017361
        k(  769) = (   0.1666667   0.5532940   0.0000000), wk =   0.0017361
        k(  770) = (   0.1666667   0.5773503   0.0000000), wk =   0.0008681
        k(  771) = (   0.1875000   0.3247595   0.0000000), wk =   0.0017361
        k(  772) = (   0.1875000   0.3488158   0.0000000), wk =   0.0017361
        k(  773) = (   0.1875000   0.3728720   0.0000000), wk =   0.0017361
        k(  774) = (   0.1875000   0.3969283   0.0000000), wk =   0.0017361
        k(  775) = (   0.1875000   0.4209846   0.0000000), wk =   0.0017361
        k(  776) = (   0.1875000   0.4450408   0.0000000), wk =   0.0017361
        k(  777) = (   0.1875000   0.4690971   0.0000000), wk =   0.0017361
        k(  778) = (   0.1875000   0.4931534   0.0000000), wk =   0.0017361
        k(  779) = (   0.1875000   0.5172096   0.0000000), wk =   0.0017361
        k(  780) = (   0.1875000   0.5412659   0.0000000), wk =   0.0017361
        k(  781) = (   0.1875000   0.5653221   0.0000000), wk =   0.0017361
        k(  782) = (   0.2083333   0.3608439   0.0000000), wk =   0.0017361
        k(  783) = (   0.2083333   0.3849002   0.0000000), wk =   0.0017361
        k(  784) = (   0.2083333   0.4089564   0.0000000), wk =   0.0017361
        k(  785) = (   0.2083333   0.4330127   0.0000000), wk =   0.0017361
        k(  786) = (   0.2083333   0.4570690   0.0000000), wk =   0.0017361
        k(  787) = (   0.2083333   0.4811252   0.0000000), wk =   0.0017361
        k(  788) = (   0.2083333   0.5051815   0.0000000), wk =   0.0017361
        k(  789) = (   0.2083333   0.5292377   0.0000000), wk =   0.0017361
        k(  790) = (   0.2083333   0.5532940   0.0000000), wk =   0.0017361
        k(  791) = (   0.2083333   0.5773503   0.0000000), wk =   0.0008681
        k(  792) = (   0.2291667   0.3969283   0.0000000), wk =   0.0017361
        k(  793) = (   0.2291667   0.4209846   0.0000000), wk =   0.0017361
        k(  794) = (   0.2291667   0.4450408   0.0000000), wk =   0.0017361
        k(  795) = (   0.2291667   0.4690971   0.0000000), wk =   0.0017361
        k(  796) = (   0.2291667   0.4931534   0.0000000), wk =   0.0017361
        k(  797) = (   0.2291667   0.5172096   0.0000000), wk =   0.0017361
        k(  798) = (   0.2291667   0.5412659   0.0000000), wk =   0.0017361
        k(  799) = (   0.2291667   0.5653221   0.0000000), wk =   0.0017361
        k(  800) = (   0.2500000   0.4330127   0.0000000), wk =   0.0017361
        k(  801) = (   0.2500000   0.4570690   0.0000000), wk =   0.0017361
        k(  802) = (   0.2500000   0.4811252   0.0000000), wk =   0.0017361
        k(  803) = (   0.2500000   0.5051815   0.0000000), wk =   0.0017361
        k(  804) = (   0.2500000   0.5292377   0.0000000), wk =   0.0017361
        k(  805) = (   0.2500000   0.5532940   0.0000000), wk =   0.0017361
        k(  806) = (   0.2500000   0.5773503   0.0000000), wk =   0.0008681
        k(  807) = (   0.2708333   0.4690971   0.0000000), wk =   0.0017361
        k(  808) = (   0.2708333   0.4931534   0.0000000), wk =   0.0017361
        k(  809) = (   0.2708333   0.5172096   0.0000000), wk =   0.0017361
        k(  810) = (   0.2708333   0.5412659   0.0000000), wk =   0.0017361
        k(  811) = (   0.2708333   0.5653221   0.0000000), wk =   0.0017361
        k(  812) = (   0.2916667   0.5051815   0.0000000), wk =   0.0017361
        k(  813) = (   0.2916667   0.5292377   0.0000000), wk =   0.0017361
        k(  814) = (   0.2916667   0.5532940   0.0000000), wk =   0.0017361
        k(  815) = (   0.2916667   0.5773503   0.0000000), wk =   0.0008681
        k(  816) = (   0.3125000   0.5412659   0.0000000), wk =   0.0017361
        k(  817) = (   0.3125000   0.5653221   0.0000000), wk =   0.0017361
        k(  818) = (   0.3333333   0.5773503   0.0000000), wk =   0.0008681
        k(  819) = (  -0.0208333   0.0120281   0.0000000), wk =   0.0017361
        k(  820) = (  -0.0416667   0.0240563   0.0000000), wk =   0.0017361
        k(  821) = (  -0.0625000   0.0360844   0.0000000), wk =   0.0017361
        k(  822) = (  -0.0833333   0.0481125   0.0000000), wk =   0.0017361
        k(  823) = (  -0.1041667   0.0601407   0.0000000), wk =   0.0017361
        k(  824) = (  -0.1250000   0.0721688   0.0000000), wk =   0.0017361
        k(  825) = (  -0.1458333   0.0841969   0.0000000), wk =   0.0017361
        k(  826) = (  -0.1666667   0.0962250   0.0000000), wk =   0.0017361
        k(  827) = (  -0.1875000   0.1082532   0.0000000), wk =   0.0017361
        k(  828) = (  -0.2083333   0.1202813   0.0000000), wk =   0.0017361
        k(  829) = (  -0.2291667   0.1323094   0.0000000), wk =   0.0017361
        k(  830) = (  -0.2500000   0.1443376   0.0000000), wk =   0.0017361
        k(  831) = (  -0.2708333   0.1563657   0.0000000), wk =   0.0017361
        k(  832) = (  -0.2916667   0.1683938   0.0000000), wk =   0.0017361
        k(  833) = (  -0.3125000   0.1804220   0.0000000), wk =   0.0017361
        k(  834) = (  -0.3333333   0.1924501   0.0000000), wk =   0.0017361
        k(  835) = (  -0.3541667   0.2044782   0.0000000), wk =   0.0017361
        k(  836) = (  -0.3750000   0.2165064   0.0000000), wk =   0.0017361
        k(  837) = (  -0.3958333   0.2285345   0.0000000), wk =   0.0017361
        k(  838) = (  -0.4166667   0.2405626   0.0000000), wk =   0.0017361
        k(  839) = (  -0.4375000   0.2525907   0.0000000), wk =   0.0017361
        k(  840) = (  -0.4583333   0.2646189   0.0000000), wk =   0.0017361
        k(  841) = (  -0.4791667   0.2766470   0.0000000), wk =   0.0017361
        k(  842) = (   0.5000000  -0.2886751   0.0000000), wk =   0.0008681
        k(  843) = (   0.0416667  -0.0000000   0.0000000), wk =   0.0008681
        k(  844) = (  -0.0416667   0.0481125   0.0000000), wk =   0.0017361
        k(  845) = (   0.0625000   0.0120281   0.0000000), wk =   0.0017361
        k(  846) = (  -0.0625000   0.0601407   0.0000000), wk =   0.0017361
        k(  847) = (   0.0833333   0.0240563   0.0000000), wk =   0.0017361
        k(  848) = (  -0.0833333   0.0721688   0.0000000), wk =   0.0017361
        k(  849) = (   0.1041667   0.0360844   0.0000000), wk =   0.0017361
        k(  850) = (  -0.1041667   0.0841969   0.0000000), wk =   0.0017361
        k(  851) = (   0.1250000   0.0481125   0.0000000), wk =   0.0017361
        k(  852) = (  -0.1250000   0.0962250   0.0000000), wk =   0.0017361
        k(  853) = (   0.1458333   0.0601407   0.0000000), wk =   0.0017361
        k(  854) = (  -0.1458333   0.1082532   0.0000000), wk =   0.0017361
        k(  855) = (   0.1666667   0.0721688   0.0000000), wk =   0.0017361
        k(  856) = (  -0.1666667   0.1202813   0.0000000), wk =   0.0017361
        k(  857) = (   0.1875000   0.0841969   0.0000000), wk =   0.0017361
        k(  858) = (  -0.1875000   0.1323094   0.0000000), wk =   0.0017361
        k(  859) = (   0.2083333   0.0962250   0.0000000), wk =   0.0017361
        k(  860) = (  -0.2083333   0.1443376   0.0000000), wk =   0.0017361
        k(  861) = (   0.2291667   0.1082532   0.0000000), wk =   0.0017361
        k(  862) = (  -0.2291667   0.1563657   0.0000000), wk =   0.0017361
        k(  863) = (   0.2500000   0.1202813   0.0000000), wk =   0.0017361
        k(  864) = (  -0.2500000   0.1683938   0.0000000), wk =   0.0017361
        k(  865) = (   0.2708333   0.1323094   0.0000000), wk =   0.0017361
        k(  866) = (  -0.2708333   0.1804220   0.0000000), wk =   0.0017361
        k(  867) = (   0.2916667   0.1443376   0.0000000), wk =   0.0017361
        k(  868) = (  -0.2916667   0.1924501   0.0000000), wk =   0.0017361
        k(  869) = (   0.3125000   0.1563657   0.0000000), wk =   0.0017361
        k(  870) = (  -0.3125000   0.2044782   0.0000000), wk =   0.0017361
        k(  871) = (   0.3333333   0.1683938   0.0000000), wk =   0.0017361
        k(  872) = (  -0.3333333   0.2165064   0.0000000), wk =   0.0017361
        k(  873) = (   0.3541667   0.1804220   0.0000000), wk =   0.0017361
        k(  874) = (  -0.3541667   0.2285345   0.0000000), wk =   0.0017361
        k(  875) = (   0.3750000   0.1924501   0.0000000), wk =   0.0017361
        k(  876) = (  -0.3750000   0.2405626   0.0000000), wk =   0.0017361
        k(  877) = (   0.3958333   0.2044782   0.0000000), wk =   0.0017361
        k(  878) = (  -0.3958333   0.2525907   0.0000000), wk =   0.0017361
        k(  879) = (   0.4166667   0.2165064   0.0000000), wk =   0.0017361
        k(  880) = (  -0.4166667   0.2646189   0.0000000), wk =   0.0017361
        k(  881) = (   0.4375000   0.2285345   0.0000000), wk =   0.0017361
        k(  882) = (  -0.4375000   0.2766470   0.0000000), wk =   0.0017361
        k(  883) = (   0.4583333   0.2405626   0.0000000), wk =   0.0017361
        k(  884) = (  -0.4583333   0.2886751   0.0000000), wk =   0.0017361
        k(  885) = (   0.4791667   0.2525907   0.0000000), wk =   0.0017361
        k(  886) = (  -0.4791667   0.3007033   0.0000000), wk =   0.0017361
        k(  887) = (   0.5000000   0.2646189   0.0000000), wk =   0.0017361
        k(  888) = (   0.0833333  -0.0000000   0.0000000), wk =   0.0008681
        k(  889) = (  -0.0625000   0.0841969   0.0000000), wk =   0.0017361
        k(  890) = (   0.1041667   0.0120281   0.0000000), wk =   0.0017361
        k(  891) = (  -0.0833333   0.0962250   0.0000000), wk =   0.0017361
        k(  892) = (   0.1250000   0.0240563   0.0000000), wk =   0.0017361
        k(  893) = (  -0.1041667   0.1082532   0.0000000), wk =   0.0017361
        k(  894) = (   0.1458333   0.0360844   0.0000000), wk =   0.0017361
        k(  895) = (  -0.1250000   0.1202813   0.0000000), wk =   0.0017361
        k(  896) = (   0.1666667   0.0481125   0.0000000), wk =   0.0017361
        k(  897) = (  -0.1458333   0.1323094   0.0000000), wk =   0.0017361
        k(  898) = (   0.1875000   0.0601407   0.0000000), wk =   0.0017361
        k(  899) = (  -0.1666667   0.1443376   0.0000000), wk =   0.0017361
        k(  900) = (   0.2083333   0.0721688   0.0000000), wk =   0.0017361
        k(  901) = (  -0.1875000   0.1563657   0.0000000), wk =   0.0017361
        k(  902) = (   0.2291667   0.0841969   0.0000000), wk =   0.0017361
        k(  903) = (  -0.2083333   0.1683938   0.0000000), wk =   0.0017361
        k(  904) = (   0.2500000   0.0962250   0.0000000), wk =   0.0017361
        k(  905) = (  -0.2291667   0.1804220   0.0000000), wk =   0.0017361
        k(  906) = (   0.2708333   0.1082532   0.0000000), wk =   0.0017361
        k(  907) = (  -0.2500000   0.1924501   0.0000000), wk =   0.0017361
        k(  908) = (   0.2916667   0.1202813   0.0000000), wk =   0.0017361
        k(  909) = (  -0.2708333   0.2044782   0.0000000), wk =   0.0017361
        k(  910) = (   0.3125000   0.1323094   0.0000000), wk =   0.0017361
        k(  911) = (  -0.2916667   0.2165064   0.0000000), wk =   0.0017361
        k(  912) = (   0.3333333   0.1443376   0.0000000), wk =   0.0017361
        k(  913) = (  -0.3125000   0.2285345   0.0000000), wk =   0.0017361
        k(  914) = (   0.3541667   0.1563657   0.0000000), wk =   0.0017361
        k(  915) = (  -0.3333333   0.2405626   0.0000000), wk =   0.0017361
        k(  916) = (   0.3750000   0.1683938   0.0000000), wk =   0.0017361
        k(  917) = (  -0.3541667   0.2525907   0.0000000), wk =   0.0017361
        k(  918) = (   0.3958333   0.1804220   0.0000000), wk =   0.0017361
        k(  919) = (  -0.3750000   0.2646189   0.0000000), wk =   0.0017361
        k(  920) = (   0.4166667   0.1924501   0.0000000), wk =   0.0017361
        k(  921) = (  -0.3958333   0.2766470   0.0000000), wk =   0.0017361
        k(  922) = (   0.4375000   0.2044782   0.0000000), wk =   0.0017361
        k(  923) = (  -0.4166667   0.2886751   0.0000000), wk =   0.0017361
        k(  924) = (   0.4583333   0.2165064   0.0000000), wk =   0.0017361
        k(  925) = (  -0.4375000   0.3007033   0.0000000), wk =   0.0017361
        k(  926) = (   0.4791667   0.2285345   0.0000000), wk =   0.0017361
        k(  927) = (  -0.4583333   0.3127314   0.0000000), wk =   0.0017361
        k(  928) = (   0.5000000   0.2405626   0.0000000), wk =   0.0017361
        k(  929) = (  -0.4791667   0.3247595   0.0000000), wk =   0.0017361
        k(  930) = (   0.1250000  -0.0000000   0.0000000), wk =   0.0008681
        k(  931) = (  -0.0833333   0.1202813   0.0000000), wk =   0.0017361
        k(  932) = (   0.1458333   0.0120281   0.0000000), wk =   0.0017361
        k(  933) = (  -0.1041667   0.1323094   0.0000000), wk =   0.0017361
        k(  934) = (   0.1666667   0.0240563   0.0000000), wk =   0.0017361
        k(  935) = (  -0.1250000   0.1443376   0.0000000), wk =   0.0017361
        k(  936) = (   0.1875000   0.0360844   0.0000000), wk =   0.0017361
        k(  937) = (  -0.1458333   0.1563657   0.0000000), wk =   0.0017361
        k(  938) = (   0.2083333   0.0481125   0.0000000), wk =   0.0017361
        k(  939) = (  -0.1666667   0.1683938   0.0000000), wk =   0.0017361
        k(  940) = (   0.2291667   0.0601407   0.0000000), wk =   0.0017361
        k(  941) = (  -0.1875000   0.1804220   0.0000000), wk =   0.0017361
        k(  942) = (   0.2500000   0.0721688   0.0000000), wk =   0.0017361
        k(  943) = (  -0.2083333   0.1924501   0.0000000), wk =   0.0017361
        k(  944) = (   0.2708333   0.0841969   0.0000000), wk =   0.0017361
        k(  945) = (  -0.2291667   0.2044782   0.0000000), wk =   0.0017361
        k(  946) = (   0.2916667   0.0962250   0.0000000), wk =   0.0017361
        k(  947) = (  -0.2500000   0.2165064   0.0000000), wk =   0.0017361
        k(  948) = (   0.3125000   0.1082532   0.0000000), wk =   0.0017361
        k(  949) = (  -0.2708333   0.2285345   0.0000000), wk =   0.0017361
        k(  950) = (   0.3333333   0.1202813   0.0000000), wk =   0.0017361
        k(  951) = (  -0.2916667   0.2405626   0.0000000), wk =   0.0017361
        k(  952) = (   0.3541667   0.1323094   0.0000000), wk =   0.0017361
        k(  953) = (  -0.3125000   0.2525907   0.0000000), wk =   0.0017361
        k(  954) = (   0.3750000   0.1443376   0.0000000), wk =   0.0017361
        k(  955) = (  -0.3333333   0.2646189   0.0000000), wk =   0.0017361
        k(  956) = (   0.3958333   0.1563657   0.0000000), wk =   0.0017361
        k(  957) = (  -0.3541667   0.2766470   0.0000000), wk =   0.0017361
        k(  958) = (   0.4166667   0.1683938   0.0000000), wk =   0.0017361
        k(  959) = (  -0.3750000   0.2886751   0.0000000), wk =   0.0017361
        k(  960) = (   0.4375000   0.1804220   0.0000000), wk =   0.0017361
        k(  961) = (  -0.3958333   0.3007033   0.0000000), wk =   0.0017361
        k(  962) = (   0.4583333   0.1924501   0.0000000), wk =   0.0017361
        k(  963) = (  -0.4166667   0.3127314   0.0000000), wk =   0.0017361
        k(  964) = (   0.4791667   0.2044782   0.0000000), wk =   0.0017361
        k(  965) = (  -0.4375000   0.3247595   0.0000000), wk =   0.0017361
        k(  966) = (   0.5000000   0.2165064   0.0000000), wk =   0.0017361
        k(  967) = (  -0.4583333   0.3367877   0.0000000), wk =   0.0017361
        k(  968) = (   0.5208333   0.2285345   0.0000000), wk =   0.0017361
        k(  969) = (   0.1666667  -0.0000000   0.0000000), wk =   0.0008681
        k(  970) = (  -0.1041667   0.1563657   0.0000000), wk =   0.0017361
        k(  971) = (   0.1875000   0.0120281   0.0000000), wk =   0.0017361
        k(  972) = (  -0.1250000   0.1683938   0.0000000), wk =   0.0017361
        k(  973) = (   0.2083333   0.0240563   0.0000000), wk =   0.0017361
        k(  974) = (  -0.1458333   0.1804220   0.0000000), wk =   0.0017361
        k(  975) = (   0.2291667   0.0360844   0.0000000), wk =   0.0017361
        k(  976) = (  -0.1666667   0.1924501   0.0000000), wk =   0.0017361
        k(  977) = (   0.2500000   0.0481125   0.0000000), wk =   0.0017361
        k(  978) = (  -0.1875000   0.2044782   0.0000000), wk =   0.0017361
        k(  979) = (   0.2708333   0.0601407   0.0000000), wk =   0.0017361
        k(  980) = (  -0.2083333   0.2165064   0.0000000), wk =   0.0017361
[...]

          k = 0.4583-0.0000 0.0000 (  3043 PWs)   bands (ev):

   -16.4399 -16.2816 -10.4129 -10.3634  -8.8740  -8.8373  -4.3989  -3.4582
     2.9468   3.3089   7.9242   8.2642   9.1491  10.1495  10.2475  10.9576

     occupation numbers 
     1.0000   1.0000   1.0000   1.0000   1.0000   1.0000   1.0000   1.0000
     0.0000   0.0000   0.0000   0.0000   0.0000   0.0000   0.0000   0.0000

          k =-0.2500 0.4090 0.0000 (  3039 PWs)   bands (ev):

   -16.1135 -15.9593 -10.7585 -10.7034  -9.1573  -9.1162  -4.0343  -3.1252
     2.5121   2.8845   8.3786   8.6916   9.6204  10.4935  10.5564  11.0893

     occupation numbers 
     1.0000   1.0000   1.0000   1.0000   1.0000   1.0000   1.0000   1.0000
     0.0000   0.0000   0.0000   0.0000   0.0000   0.0000   0.0000   0.0000

          k = 0.4792 0.0120 0.0000 (  3039 PWs)   bands (ev):

   -16.1135 -15.9593 -10.7580 -10.7029  -9.1579  -9.1168  -4.0344  -3.1254
     2.5125   2.8849   8.3786   8.6915   9.6204  10.4932  10.5563  11.0886

     occupation numbers 
     1.0000   1.0000   1.0000   1.0000   1.0000   1.0000   1.0000   1.0000
     0.0000   0.0000   0.0000   0.0000   0.0000   0.0000   0.0000   0.0000

          k =-0.2708 0.4210 0.0000 (  3031 PWs)   bands (ev):

   -15.7721 -15.6223 -11.1367 -11.0710  -9.3902  -9.3410  -3.6594  -2.7879
     2.0794   2.4646   8.8552   9.1228  10.1072  10.6606  10.8689  11.1619

     occupation numbers 
     1.0000   1.0000   1.0000   1.0000   1.0000   1.0000   1.0000   1.0000
     0.0000   0.0000   0.0000   0.0000   0.0000   0.0000   0.0000   0.0000

          k = 0.5000 0.0241 0.0000 (  3031 PWs)   bands (ev):

   -15.7721 -15.6223 -11.1363 -11.0706  -9.3907  -9.3414  -3.6596  -2.7881
     2.0798   2.4650   8.8552   9.1227  10.1071  10.6602  10.8686  11.1618

     occupation numbers 
     1.0000   1.0000   1.0000   1.0000   1.0000   1.0000   1.0000   1.0000
     0.0000   0.0000   0.0000   0.0000   0.0000   0.0000   0.0000   0.0000

          k =-0.2917 0.4330 0.0000 (  3029 PWs)   bands (ev):

   -15.4174 -15.2727 -11.5383 -11.4614  -9.5732  -9.5157  -3.2791  -2.4538
     1.6577   2.0528   9.3517   9.5391  10.5328  10.8138  10.9449  11.4106

     occupation numbers 
     1.0000   1.0000   1.0000   1.0000   1.0000   1.0000   1.0000   1.0000
     0.0000   0.0000   0.0000   0.0000   0.0000   0.0000   0.0000   0.0000

          k = 0.5208 0.0361 0.0000 (  3029 PWs)   bands (ev):

   -15.4174 -15.2727 -11.5380 -11.4611  -9.5736  -9.5160  -3.2793  -2.4541
     1.6581   2.0532   9.3517   9.5390  10.5326  10.8136  10.9447  11.4107

     occupation numbers 
     1.0000   1.0000   1.0000   1.0000   1.0000   1.0000   1.0000   1.0000
     0.0000   0.0000   0.0000   0.0000   0.0000   0.0000   0.0000   0.0000

          k =-0.3125 0.4450 0.0000 (  3020 PWs)   bands (ev):

   -15.0526 -14.9138 -11.9505 -11.8645  -9.7112  -9.6472  -2.9015  -2.1362
     1.2630   1.6554   9.8622   9.9067  10.6426  10.9312  11.2828  11.4840

     occupation numbers 
     1.0000   1.0000   1.0000   1.0000   1.0000   1.0000   1.0000   1.0000
     0.0000   0.0000   0.0000   0.0000   0.0000   0.0000   0.0000   0.0000

          k = 0.5417 0.0481 0.0000 (  3020 PWs)   bands (ev):

   -15.0526 -14.9138 -11.9503 -11.8642  -9.7115  -9.6474  -2.9017  -2.1364
     1.2633   1.6557   9.8621   9.9066  10.6423  10.9311  11.2828  11.4840

     occupation numbers 
     1.0000   1.0000   1.0000   1.0000   1.0000   1.0000   1.0000   1.0000
     0.0000   0.0000   0.0000   0.0000   0.0000   0.0000   0.0000   0.0000

          k =-0.3333 0.4571 0.0000 (  3014 PWs)   bands (ev):

   -14.6839 -14.5530 -12.3583 -12.2671  -9.8099  -9.7413  -2.5409  -1.8584
     0.9231   1.2833  10.1652  10.3875  10.6352  10.9674  11.4649  11.8438

     occupation numbers 
     1.0000   1.0000   1.0000   1.0000   1.0000   1.0000   1.0000   1.0000
     0.0000   0.0000   0.0000   0.0000   0.0000   0.0000   0.0000   0.0000

          k = 0.5625 0.0601 0.0000 (  3014 PWs)   bands (ev):

   -14.6839 -14.5530 -12.3582 -12.2669  -9.8101  -9.7415  -2.5411  -1.8586
     0.9233   1.2836  10.1651  10.3874  10.6350  10.9673  11.4649  11.8438

     occupation numbers 
     1.0000   1.0000   1.0000   1.0000   1.0000   1.0000   1.0000   1.0000
     0.0000   0.0000   0.0000   0.0000   0.0000   0.0000   0.0000   0.0000

          k =-0.3542 0.4691 0.0000 (  3019 PWs)   bands (ev):

   -14.3280 -14.2107 -12.7355 -12.6476  -9.8735  -9.8021  -2.2261  -1.6583
     0.6851   0.9568  10.3015  10.6175  10.8735  11.0415  11.4599  12.2165

     occupation numbers 
     1.0000   1.0000   1.0000   1.0000   1.0000   1.0000   1.0000   1.0000
     0.0000   0.0000   0.0000   0.0000   0.0000   0.0000   0.0000   0.0000

          k = 0.5833 0.0722 0.0000 (  3019 PWs)   bands (ev):

   -14.3280 -14.2107 -12.7354 -12.6475  -9.8736  -9.8022  -2.2262  -1.6585
     0.6853   0.9570  10.3014  10.6173  10.8733  11.0416  11.4600  12.2165

     occupation numbers 
     1.0000   1.0000   1.0000   1.0000   1.0000   1.0000   1.0000   1.0000
     0.0000   0.0000   0.0000   0.0000   0.0000   0.0000   0.0000   0.0000

          k =-0.3750 0.4811 0.0000 (  3013 PWs)   bands (ev):

   -14.0461 -13.9607 -13.0018 -12.9445  -9.9046  -9.8320  -2.0192  -1.5692
     0.6077   0.7132  10.3493  10.6080  10.9895  11.3970  11.5128  11.9767

     occupation numbers 
     1.0000   1.0000   1.0000   1.0000   1.0000   1.0000   1.0000   1.0000
     0.0000   0.0000   0.0000   0.0000   0.0000   0.0000   0.0000   0.0000

          k = 0.6042 0.0842 0.0000 (  3013 PWs)   bands (ev):

   -14.0461 -13.9607 -13.0018 -12.9444  -9.9047  -9.8320  -2.0193  -1.5692
     0.6077   0.7133  10.3493  10.6079  10.9895  11.3967  11.5133  11.9765

     occupation numbers 
     1.0000   1.0000   1.0000   1.0000   1.0000   1.0000   1.0000   1.0000
     0.0000   0.0000   0.0000   0.0000   0.0000   0.0000   0.0000   0.0000

          k = 0.5000-0.0000 0.0000 (  3033 PWs)   bands (ev):

   -15.7814 -15.6315 -11.0453 -10.9923  -9.4727  -9.4338  -3.6666  -2.7915
     2.1038   2.4805   8.8419   9.1058  10.0937  10.6499  10.9277  11.5244

     occupation numbers 
     1.0000   1.0000   1.0000   1.0000   1.0000   1.0000   1.0000   1.0000
     0.0000   0.0000   0.0000   0.0000   0.0000   0.0000   0.0000   0.0000

          k =-0.2708 0.4450 0.0000 (  3025 PWs)   bands (ev):

   -15.4355 -15.2904 -11.3698 -11.3111  -9.7339  -9.6907  -3.2895  -2.4545
     1.6954   2.0802   9.3254   9.5028  10.5043  10.7972  11.1996  11.6210

     occupation numbers 
     1.0000   1.0000   1.0000   1.0000   1.0000   1.0000   1.0000   1.0000
     0.0000   0.0000   0.0000   0.0000   0.0000   0.0000   0.0000   0.0000

          k = 0.5208 0.0120 0.0000 (  3025 PWs)   bands (ev):

   -15.4355 -15.2904 -11.3693 -11.3107  -9.7344  -9.6912  -3.2897  -2.4547
     1.6959   2.0807   9.3254   9.5027  10.5041  10.7970  11.1994  11.6208

     occupation numbers 
     1.0000   1.0000   1.0000   1.0000   1.0000   1.0000   1.0000   1.0000
     0.0000   0.0000   0.0000   0.0000   0.0000   0.0000   0.0000   0.0000

          k =-0.2917 0.4571 0.0000 (  3019 PWs)   bands (ev):

   -15.0780 -14.9384 -11.7265 -11.6573  -9.9389  -9.8872  -2.9093  -2.1234
     1.2984   1.6890   9.8250   9.8475  10.5913  11.2202  11.3464  11.6904

     occupation numbers 
     1.0000   1.0000   1.0000   1.0000   1.0000   1.0000   1.0000   1.0000
     0.0000   0.0000   0.0000   0.0000   0.0000   0.0000   0.0000   0.0000

          k = 0.5417 0.0241 0.0000 (  3019 PWs)   bands (ev):

   -15.0781 -14.9384 -11.7262 -11.6570  -9.9393  -9.8876  -2.9095  -2.1236
     1.2988   1.6894   9.8250   9.8474  10.5910  11.2202  11.3464  11.6905

     occupation numbers 
     1.0000   1.0000   1.0000   1.0000   1.0000   1.0000   1.0000   1.0000
     0.0000   0.0000   0.0000   0.0000   0.0000   0.0000   0.0000   0.0000

          k =-0.3125 0.4691 0.0000 (  3010 PWs)   bands (ev):

   -14.7133 -14.5803 -12.1023 -12.0232 -10.0892 -10.0293  -2.5353  -1.8137
     0.9304   1.3131  10.0910  10.3378  10.5585  11.4107  11.7642  11.8171

     occupation numbers 
     1.0000   1.0000   1.0000   1.0000   1.0000   1.0000   1.0000   1.0000
     0.0000   0.0000   0.0000   0.0000   0.0000   0.0000   0.0000   0.0000

          k = 0.5625 0.0361 0.0000 (  3010 PWs)   bands (ev):

   -14.7133 -14.5803 -12.1020 -12.0229 -10.0895 -10.0296  -2.5355  -1.8139
     0.9308   1.3134  10.0909  10.3378  10.5582  11.4107  11.7644  11.8171

     occupation numbers 
     1.0000   1.0000   1.0000   1.0000   1.0000   1.0000   1.0000   1.0000
     0.0000   0.0000   0.0000   0.0000   0.0000   0.0000   0.0000   0.0000

          k =-0.3333 0.4811 0.0000 (  3013 PWs)   bands (ev):

   -14.3507 -14.2274 -12.4759 -12.3923 -10.1908 -10.1250  -2.1857  -1.5554
     0.6271   0.9656  10.2214  10.5131  10.8491  11.4482  11.9424  12.2405

     occupation numbers 
     1.0000   1.0000   1.0000   1.0000   1.0000   1.0000   1.0000   1.0000
     0.0000   0.0000   0.0000   0.0000   0.0000   0.0000   0.0000   0.0000

          k = 0.5833 0.0481 0.0000 (  3013 PWs)   bands (ev):

   -14.3507 -14.2275 -12.4757 -12.3921 -10.1910 -10.1251  -2.1859  -1.5556
     0.6273   0.9660  10.2213  10.5129  10.8490  11.4482  11.9426  12.2404

     occupation numbers 
     1.0000   1.0000   1.0000   1.0000   1.0000   1.0000   1.0000   1.0000
     0.0000   0.0000   0.0000   0.0000   0.0000   0.0000   0.0000   0.0000

          k =-0.3542 0.4932 0.0000 (  3011 PWs)   bands (ev):

   -14.0196 -13.9163 -12.8023 -12.7300 -10.2493 -10.1801  -1.9022  -1.3961
     0.4493   0.6747  10.2727  10.4798  11.3028  11.4984  11.9856  12.2944

     occupation numbers 
     1.0000   1.0000   1.0000   1.0000   1.0000   1.0000   1.0000   1.0000
     0.0000   0.0000   0.0000   0.0000   0.0000   0.0000   0.0000   0.0000

          k = 0.6042 0.0601 0.0000 (  3011 PWs)   bands (ev):

   -14.0196 -13.9163 -12.8022 -12.7299 -10.2494 -10.1802  -1.9023  -1.3962
     0.4494   0.6749  10.2726  10.4797  11.3026  11.4986  11.9860  12.2940

     occupation numbers 
     1.0000   1.0000   1.0000   1.0000   1.0000   1.0000   1.0000   1.0000
     0.0000   0.0000   0.0000   0.0000   0.0000   0.0000   0.0000   0.0000

          k =-0.3750 0.5052 0.0000 (  3008 PWs)   bands (ev):

   -13.8443 -13.7734 -12.9444 -12.9144 -10.2685 -10.1981  -1.7793  -1.3538
     0.4283   0.5218  10.2849  10.4679  11.4001  11.8172  11.8625  12.0854

     occupation numbers 
     1.0000   1.0000   1.0000   1.0000   1.0000   1.0000   1.0000   1.0000
     0.0000   0.0000   0.0000   0.0000   0.0000   0.0000   0.0000   0.0000

          k = 0.5417-0.0000 0.0000 (  3013 PWs)   bands (ev):

   -15.0866 -14.9467 -11.6330 -11.5767 -10.0262  -9.9864  -2.9123  -2.1195
     1.3114   1.7010   9.8127   9.8260  10.5674  11.2138  11.4259  11.9671

     occupation numbers 
     1.0000   1.0000   1.0000   1.0000   1.0000   1.0000   1.0000   1.0000
     0.0000   0.0000   0.0000   0.0000   0.0000   0.0000   0.0000   0.0000

          k =-0.2917 0.4811 0.0000 (  3009 PWs)   bands (ev):

   -14.7284 -14.5945 -11.9343 -11.8725 -10.2572 -10.2135  -2.5331  -1.7913
     0.9355   1.3295  10.0461  10.3117  10.5053  11.6432  11.7420  12.0007

     occupation numbers 
     1.0000   1.0000   1.0000   1.0000   1.0000   1.0000   1.0000   1.0000
     0.0000   0.0000   0.0000   0.0000   0.0000   0.0000   0.0000   0.0000

          k = 0.5625 0.0120 0.0000 (  3009 PWs)   bands (ev):

   -14.7284 -14.5945 -11.9339 -11.8721 -10.2576 -10.2140  -2.5334  -1.7916
     0.9360   1.3299  10.0460  10.3117  10.5049  11.6433  11.7420  12.0008

     occupation numbers 
     1.0000   1.0000   1.0000   1.0000   1.0000   1.0000   1.0000   1.0000
     0.0000   0.0000   0.0000   0.0000   0.0000   0.0000   0.0000   0.0000

          k =-0.3125 0.4932 0.0000 (  3012 PWs)   bands (ev):

   -14.3669 -14.2407 -12.2633 -12.1928 -10.4252 -10.3737  -2.1636  -1.4892
     0.5900   0.9746  10.1525  10.4283  10.8140  11.8454  12.0602  12.3321

     occupation numbers 
     1.0000   1.0000   1.0000   1.0000   1.0000   1.0000   1.0000   1.0000
     0.0000   0.0000   0.0000   0.0000   0.0000   0.0000   0.0000   0.0000

          k = 0.5833 0.0241 0.0000 (  3012 PWs)   bands (ev):

   -14.3669 -14.2408 -12.2629 -12.1924 -10.4255 -10.3740  -2.1639  -1.4895
     0.5904   0.9751  10.1524  10.4280  10.8140  11.8455  12.0604  12.3321

     occupation numbers 
     1.0000   1.0000   1.0000   1.0000   1.0000   1.0000   1.0000   1.0000
     0.0000   0.0000   0.0000   0.0000   0.0000   0.0000   0.0000   0.0000

          k =-0.3333 0.5052 0.0000 (  3007 PWs)   bands (ev):

   -14.0167 -13.9031 -12.5926 -12.5199 -10.5324 -10.4740  -1.8278  -1.2528
     0.3206   0.6532  10.1869  10.3662  11.2983  11.8701  12.3372  12.5016

     occupation numbers 
     1.0000   1.0000   1.0000   1.0000   1.0000   1.0000   1.0000   1.0000
     0.0000   0.0000   0.0000   0.0000   0.0000   0.0000   0.0000   0.0000

          k = 0.6042 0.0361 0.0000 (  3007 PWs)   bands (ev):

   -14.0167 -13.9031 -12.5924 -12.5197 -10.5326 -10.4741  -1.8281  -1.2530
     0.3209   0.6535  10.1869  10.3659  11.2982  11.8703  12.3376  12.5011

     occupation numbers 
     1.0000   1.0000   1.0000   1.0000   1.0000   1.0000   1.0000   1.0000
     0.0000   0.0000   0.0000   0.0000   0.0000   0.0000   0.0000   0.0000

          k =-0.3542 0.5172 0.0000 (  3008 PWs)   bands (ev):

   -13.7336 -13.6498 -12.8410 -12.7965 -10.5842 -10.5221  -1.5912  -1.1418
     0.2021   0.4149  10.1935  10.3317  11.6815  11.9245  12.2017  12.5501

     occupation numbers 
     1.0000   1.0000   1.0000   1.0000   1.0000   1.0000   1.0000   1.0000
     0.0000   0.0000   0.0000   0.0000   0.0000   0.0000   0.0000   0.0000

          k = 0.6250 0.0481 0.0000 (  3008 PWs)   bands (ev):

   -13.7337 -13.6499 -12.8409 -12.7964 -10.5843 -10.5222  -1.5913  -1.1418
     0.2022   0.4150  10.1935  10.3317  11.6813  11.9248  12.2017  12.5499

     occupation numbers 
     1.0000   1.0000   1.0000   1.0000   1.0000   1.0000   1.0000   1.0000
     0.0000   0.0000   0.0000   0.0000   0.0000   0.0000   0.0000   0.0000

          k = 0.5833-0.0000 0.0000 (  3011 PWs)   bands (ev):

   -14.3727 -14.2456 -12.1739 -12.1144 -10.5139 -10.4758  -2.1568  -1.4666
     0.5777   0.9787  10.1278  10.3974  10.8017  11.9822  12.1389  12.3510

     occupation numbers 
     1.0000   1.0000   1.0000   1.0000   1.0000   1.0000   1.0000   1.0000
     0.0000   0.0000   0.0000   0.0000   0.0000   0.0000   0.0000   0.0000

          k =-0.3125 0.5172 0.0000 (  3004 PWs)   bands (ev):

   -14.0187 -13.9009 -12.4476 -12.3843 -10.6991 -10.6593  -1.7918  -1.1686
     0.2457   0.6434  10.1396  10.3033  11.2776  12.1700  12.3680  12.5431

     occupation numbers 
     1.0000   1.0000   1.0000   1.0000   1.0000   1.0000   1.0000   1.0000
     0.0000   0.0000   0.0000   0.0000   0.0000   0.0000   0.0000   0.0000

          k = 0.6042 0.0120 0.0000 (  3004 PWs)   bands (ev):

   -14.0187 -13.9009 -12.4472 -12.3839 -10.6994 -10.6596  -1.7922  -1.1690
     0.2461   0.6439  10.1396  10.3030  11.2776  12.1703  12.3681  12.5426

     occupation numbers 
     1.0000   1.0000   1.0000   1.0000   1.0000   1.0000   1.0000   1.0000
     0.0000   0.0000   0.0000   0.0000   0.0000   0.0000   0.0000   0.0000

          k =-0.3333 0.5292 0.0000 (  3000 PWs)   bands (ev):

   -13.6900 -13.5891 -12.7223 -12.6623 -10.8101 -10.7653  -1.4728  -0.9551
     0.0045   0.3503  10.1313  10.2382  11.7013  12.1704  12.4273  12.8053

     occupation numbers 
     1.0000   1.0000   1.0000   1.0000   1.0000   1.0000   1.0000   1.0000
     0.0000   0.0000   0.0000   0.0000   0.0000   0.0000   0.0000   0.0000

          k = 0.6250 0.0241 0.0000 (  3000 PWs)   bands (ev):

   -13.6901 -13.5892 -12.7220 -12.6620 -10.8102 -10.7655  -1.4730  -0.9553
     0.0048   0.3506  10.1313  10.2381  11.7012  12.1708  12.4271  12.8052

     occupation numbers 
     1.0000   1.0000   1.0000   1.0000   1.0000   1.0000   1.0000   1.0000
     0.0000   0.0000   0.0000   0.0000   0.0000   0.0000   0.0000   0.0000

          k =-0.3542 0.5413 0.0000 (  3006 PWs)   bands (ev):

   -13.5042 -13.4354 -12.8508 -12.8454 -10.8468 -10.7997  -1.3167  -0.8983
    -0.0601   0.2016  10.1270  10.2145  11.9218  12.2201  12.2879  12.9347

     occupation numbers 
     1.0000   1.0000   1.0000   1.0000   1.0000   1.0000   1.0000   1.0000
     0.0000   0.0000   0.0000   0.0000   0.0000   0.0000   0.0000   0.0000

          k = 0.6250-0.0000 0.0000 (  3009 PWs)   bands (ev):

   -13.6793 -13.5727 -12.6657 -12.6034 -10.8923 -10.8633  -1.4328  -0.8695
    -0.0841   0.3284  10.1104  10.2045  11.6956  12.2802  12.5007  12.8423

     occupation numbers 
     1.0000   1.0000   1.0000   1.0000   1.0000   1.0000   1.0000   1.0000
     0.0000   0.0000   0.0000   0.0000   0.0000   0.0000   0.0000   0.0000

          k =-0.3333 0.5533 0.0000 (  3013 PWs)   bands (ev):

   -13.3836 -13.2990 -12.8862 -12.8323 -10.9920 -10.9676  -1.1361  -0.6766
    -0.3084   0.0699  10.0956  10.1464  11.9853  12.3256  12.4726  13.1104

     occupation numbers 
     1.0000   1.0000   1.0000   1.0000   1.0000   1.0000   1.0000   1.0060
     0.0000   0.0000   0.0000   0.0000   0.0000   0.0000   0.0000   0.0000

          k = 0.6458 0.0120 0.0000 (  3013 PWs)   bands (ev):

   -13.3837 -13.2991 -12.8859 -12.8320 -10.9921 -10.9677  -1.1363  -0.6767
    -0.3082   0.0702  10.0957  10.1463  11.9852  12.3260  12.4723  13.1104

     occupation numbers 
     1.0000   1.0000   1.0000   1.0000   1.0000   1.0000   1.0000   1.0060
     0.0000   0.0000   0.0000   0.0000   0.0000   0.0000   0.0000   0.0000

     the Fermi energy is    -0.5206 ev

     Writing output data file gra.dos1.save

     init_run     :      2.59s CPU      2.68s WALL (       1 calls)
     electrons    :   1555.27s CPU   1561.61s WALL (       1 calls)

     Called by init_run:
     wfcinit      :      0.00s CPU      0.00s WALL (       1 calls)
     potinit      :      0.78s CPU      0.81s WALL (       1 calls)

     Called by electrons:
     c_bands      :   1554.94s CPU   1561.27s WALL (       1 calls)
     v_of_rho     :      0.70s CPU      0.71s WALL (       1 calls)
     v_h          :      0.02s CPU      0.02s WALL (       1 calls)
     v_xc         :      0.68s CPU      0.69s WALL (       1 calls)
     newd         :      0.40s CPU      0.40s WALL (       1 calls)

     Called by c_bands:
     init_us_2    :      1.46s CPU      1.48s WALL (    1202 calls)
     cegterg      :   1486.88s CPU   1492.89s WALL (    2506 calls)

     Called by sum_band:

     Called by *egterg:
     h_psi        :    733.11s CPU    738.06s WALL (   42266 calls)
     s_psi        :    105.99s CPU    106.23s WALL (   42266 calls)
     g_psi        :      6.92s CPU      6.95s WALL (   38558 calls)
     cdiaghg      :     54.31s CPU     54.47s WALL (   39760 calls)
     cegterg:over :    259.91s CPU    260.28s WALL (   38558 calls)
     cegterg:upda :    184.24s CPU    184.56s WALL (   38558 calls)
     cegterg:last :    160.01s CPU    160.15s WALL (    7482 calls)

     Called by h_psi:
     h_psi:vloc   :    505.85s CPU    510.04s WALL (   42266 calls)
     h_psi:vnl    :    223.40s CPU    224.15s WALL (   42266 calls)
     add_vuspsi   :    106.80s CPU    107.05s WALL (   42266 calls)

     General routines
     calbec       :    116.24s CPU    116.82s WALL (   42266 calls)
     fft          :      0.25s CPU      0.26s WALL (      22 calls)
     ffts         :      0.00s CPU      0.00s WALL (       2 calls)
     fftw         :    356.04s CPU    358.90s WALL (  724222 calls)
     interpolate  :      0.03s CPU      0.03s WALL (       2 calls)

     Parallel routines
     fft_scatter  :     60.07s CPU     60.51s WALL (  724246 calls)

     PWSCF        : 26m 7.77s CPU    26m17.04s WALL


   This run was terminated on:  20:43:11  30Apr2020            

=------------------------------------------------------------------------------=
   JOB DONE.
=------------------------------------------------------------------------------=
