
     Program PWSCF v.5.1 starts on 30Apr2020 at 19:47:22 

     This program is part of the open-source Quantum ESPRESSO suite
     for quantum simulation of materials; please cite
         "P. Giannozzi et al., J. Phys.:Condens. Matter 21 395502 (2009);
          URL http://www.quantum-espresso.org", 
     in publications or presentations arising from this work. More details at
     http://www.quantum-espresso.org/quote

     Parallel version (MPI), running on     1 processors
     Waiting for input...
     Reading input from standard input

     Current dimensions of program PWSCF are:
     Max number of different atomic species (ntypx) = 10
     Max number of k-points (npk) =  40000
     Max angular momentum in pseudopotentials (lmaxx) =  3

     IMPORTANT: XC functional enforced from input :
     Exchange-correlation      = PBE ( 1  4  3  4 0)
     Any further DFT definition will be discarded
     Please, verify this is what you really want

               file C.pbe-rrkjus.UPF: wavefunction(s)  2S 2P renormalized

     Subspace diagonalization in iterative solution of the eigenvalue problem:
     a serial algorithm will be used


     G-vector sticks info
     --------------------
     sticks:   dense  smooth     PW     G-vecs:    dense   smooth      PW
     Sum         595     241     85                96043    24369    4587

     Generating pointlists ...
     new r_m :   0.2381 (alat units)  1.1104 (a.u.) for type    1

     Title: 
     graphene                                                                   


     bravais-lattice index     =           12
     lattice parameter (alat)  =       4.6627  a.u.
     unit-cell volume          =     711.6007 (a.u.)^3
     number of atoms/cell      =            4
     number of atomic types    =            1
     number of electrons       =        16.00
     number of Kohn-Sham states=           16
     kinetic-energy cutoff     =      40.0000  Ry
     charge density cutoff     =     400.0000  Ry
     convergence threshold     =      1.0E-10
     mixing beta               =       0.3000
     number of iterations used =            8  plain     mixing
     Exchange-correlation      = PBE ( 1  4  3  4 0)

     celldm(1)=   4.662710  celldm(2)=   1.000000  celldm(3)=   8.105698
     celldm(4)=  -0.500000  celldm(5)=   0.000000  celldm(6)=   0.000000

     crystal axes: (cart. coord. in units of alat)
               a(1) = (   1.000000   0.000000   0.000000 )  
               a(2) = (  -0.500000   0.866025   0.000000 )  
               a(3) = (   0.000000   0.000000   8.105698 )  

     reciprocal axes: (cart. coord. in units 2 pi/alat)
               b(1) = (  1.000000  0.577350 -0.000000 )  
               b(2) = (  0.000000  1.154701  0.000000 )  
               b(3) = (  0.000000 -0.000000  0.123370 )  


     PseudoPot. # 1 for C  read from file:
     ../pseudo/C.pbe-rrkjus.UPF
     MD5 check sum: 00fb224312de0c5b6853bd333518df6f
     Pseudo is Ultrasoft, Zval =  4.0
     Generated by new atomic code, or converted to UPF format
     Using radial grid of  627 points,  4 beta functions with: 
                l(1) =   0
                l(2) =   0
                l(3) =   1
                l(4) =   1
     Q(r) pseudized with 0 coefficients 


     atomic species   valence    mass     pseudopotential
        C              4.00    12.01100     C ( 1.00)

     Starting magnetic structure 
     atomic species   magnetization
        C            0.500

      2 Sym. Ops. (no inversion) found
          (note:  2 additional sym.ops. were found but ignored
           their fractional translations are incommensurate with FFT grid)

                                    s                        frac. trans.

      isym =  1     identity                                     

 cryst.   s( 1) = (     1          0          0      )
                  (     0          1          0      )
                  (     0          0          1      )

 cart.    s( 1) = (  1.0000000  0.0000000  0.0000000 )
                  (  0.0000000  1.0000000  0.0000000 )
                  (  0.0000000  0.0000000  1.0000000 )


      isym =  2     inv. 180 deg rotation - cart. axis [1,0,0]   

 cryst.   s( 2) = (    -1          0          0      )
                  (     1          1          0      )
                  (     0          0          1      )

 cart.    s( 2) = ( -1.0000000  0.0000000  0.0000000 )
                  (  0.0000000  1.0000000  0.0000000 )
                  (  0.0000000  0.0000000  1.0000000 )


     point group C_s (m)    
     there are  2 classes
     the character table:

       E     s    
A'     1.00  1.00
A''    1.00 -1.00

     the symmetry operations in each class:
     E        1
     s        2

   Cartesian axes

     site n.     atom                  positions (alat units)
         1           C   tau(   1) = (   0.0000000   0.0000000   2.0264246  )
         2           C   tau(   2) = (   0.0000000   0.5773284   2.0264246  )
         3           C   tau(   3) = (   0.0000000   1.1546567   3.3354949  )
         4           C   tau(   4) = (   0.0000000   0.5773284   3.3354949  )

   Crystallographic axes

     site n.     atom                  positions (cryst. coord.)
         1           C   tau(   1) = (  0.0000000  0.0000000  0.2500000  )
         2           C   tau(   2) = (  0.3333207  0.6666414  0.2500000  )
         3           C   tau(   3) = (  0.6666414  1.3332827  0.4115000  )
         4           C   tau(   4) = (  0.3333207  0.6666414  0.4115000  )

     number of k points=   314  Marzari-Vanderbilt smearing, width (Ry)=  0.0001
                       cart. coord. in units 2pi/alat
        k(    1) = (   0.0000000   0.0000000   0.0000000), wk =   0.0017361
        k(    2) = (   0.0000000   0.0481125   0.0000000), wk =   0.0034722
        k(    3) = (   0.0000000   0.0962250   0.0000000), wk =   0.0034722
        k(    4) = (   0.0000000   0.1443376   0.0000000), wk =   0.0034722
        k(    5) = (   0.0000000   0.1924501   0.0000000), wk =   0.0034722
        k(    6) = (   0.0000000   0.2405626   0.0000000), wk =   0.0034722
        k(    7) = (   0.0000000   0.2886751   0.0000000), wk =   0.0034722
        k(    8) = (   0.0000000   0.3367877   0.0000000), wk =   0.0034722
        k(    9) = (   0.0000000   0.3849002   0.0000000), wk =   0.0034722
        k(   10) = (   0.0000000   0.4330127   0.0000000), wk =   0.0034722
        k(   11) = (   0.0000000   0.4811252   0.0000000), wk =   0.0034722
        k(   12) = (   0.0000000   0.5292377   0.0000000), wk =   0.0034722
        k(   13) = (   0.0000000  -0.5773503   0.0000000), wk =   0.0017361
        k(   14) = (   0.0416667   0.0721688   0.0000000), wk =   0.0069444
        k(   15) = (   0.0416667   0.1202813   0.0000000), wk =   0.0069444
        k(   16) = (   0.0416667   0.1683938   0.0000000), wk =   0.0069444
        k(   17) = (   0.0416667   0.2165064   0.0000000), wk =   0.0069444
        k(   18) = (   0.0416667   0.2646189   0.0000000), wk =   0.0069444
        k(   19) = (   0.0416667   0.3127314   0.0000000), wk =   0.0069444
        k(   20) = (   0.0416667   0.3608439   0.0000000), wk =   0.0069444
        k(   21) = (   0.0416667   0.4089564   0.0000000), wk =   0.0069444
        k(   22) = (   0.0416667   0.4570690   0.0000000), wk =   0.0069444
        k(   23) = (   0.0416667   0.5051815   0.0000000), wk =   0.0069444
        k(   24) = (   0.0416667   0.5532940   0.0000000), wk =   0.0069444
        k(   25) = (   0.0833333   0.1443376   0.0000000), wk =   0.0069444
        k(   26) = (   0.0833333   0.1924501   0.0000000), wk =   0.0069444
        k(   27) = (   0.0833333   0.2405626   0.0000000), wk =   0.0069444
        k(   28) = (   0.0833333   0.2886751   0.0000000), wk =   0.0069444
        k(   29) = (   0.0833333   0.3367877   0.0000000), wk =   0.0069444
        k(   30) = (   0.0833333   0.3849002   0.0000000), wk =   0.0069444
        k(   31) = (   0.0833333   0.4330127   0.0000000), wk =   0.0069444
        k(   32) = (   0.0833333   0.4811252   0.0000000), wk =   0.0069444
        k(   33) = (   0.0833333   0.5292377   0.0000000), wk =   0.0069444
        k(   34) = (   0.0833333   0.5773503   0.0000000), wk =   0.0034722
        k(   35) = (   0.1250000   0.2165064   0.0000000), wk =   0.0069444
        k(   36) = (   0.1250000   0.2646189   0.0000000), wk =   0.0069444
        k(   37) = (   0.1250000   0.3127314   0.0000000), wk =   0.0069444
        k(   38) = (   0.1250000   0.3608439   0.0000000), wk =   0.0069444
        k(   39) = (   0.1250000   0.4089564   0.0000000), wk =   0.0069444
        k(   40) = (   0.1250000   0.4570690   0.0000000), wk =   0.0069444
        k(   41) = (   0.1250000   0.5051815   0.0000000), wk =   0.0069444
        k(   42) = (   0.1250000   0.5532940   0.0000000), wk =   0.0069444
        k(   43) = (   0.1666667   0.2886751   0.0000000), wk =   0.0069444
        k(   44) = (   0.1666667   0.3367877   0.0000000), wk =   0.0069444
        k(   45) = (   0.1666667   0.3849002   0.0000000), wk =   0.0069444
        k(   46) = (   0.1666667   0.4330127   0.0000000), wk =   0.0069444
        k(   47) = (   0.1666667   0.4811252   0.0000000), wk =   0.0069444
        k(   48) = (   0.1666667   0.5292377   0.0000000), wk =   0.0069444
        k(   49) = (   0.1666667   0.5773503   0.0000000), wk =   0.0034722
        k(   50) = (   0.2083333   0.3608439   0.0000000), wk =   0.0069444
        k(   51) = (   0.2083333   0.4089564   0.0000000), wk =   0.0069444
        k(   52) = (   0.2083333   0.4570690   0.0000000), wk =   0.0069444
        k(   53) = (   0.2083333   0.5051815   0.0000000), wk =   0.0069444
        k(   54) = (   0.2083333   0.5532940   0.0000000), wk =   0.0069444
        k(   55) = (   0.2500000   0.4330127   0.0000000), wk =   0.0069444
        k(   56) = (   0.2500000   0.4811252   0.0000000), wk =   0.0069444
        k(   57) = (   0.2500000   0.5292377   0.0000000), wk =   0.0069444
        k(   58) = (   0.2500000   0.5773503   0.0000000), wk =   0.0034722
        k(   59) = (   0.2916667   0.5051815   0.0000000), wk =   0.0069444
        k(   60) = (   0.2916667   0.5532940   0.0000000), wk =   0.0069444
        k(   61) = (   0.3333333   0.5773503   0.0000000), wk =   0.0034722
        k(   62) = (  -0.0416667   0.0240563   0.0000000), wk =   0.0069444
        k(   63) = (  -0.0833333   0.0481125   0.0000000), wk =   0.0069444
        k(   64) = (  -0.1250000   0.0721688   0.0000000), wk =   0.0069444
        k(   65) = (  -0.1666667   0.0962250   0.0000000), wk =   0.0069444
        k(   66) = (  -0.2083333   0.1202813   0.0000000), wk =   0.0069444
        k(   67) = (  -0.2500000   0.1443376   0.0000000), wk =   0.0069444
        k(   68) = (  -0.2916667   0.1683938   0.0000000), wk =   0.0069444
        k(   69) = (  -0.3333333   0.1924501   0.0000000), wk =   0.0069444
        k(   70) = (  -0.3750000   0.2165064   0.0000000), wk =   0.0069444
        k(   71) = (  -0.4166667   0.2405626   0.0000000), wk =   0.0069444
        k(   72) = (  -0.4583333   0.2646189   0.0000000), wk =   0.0069444
        k(   73) = (   0.5000000  -0.2886751   0.0000000), wk =   0.0034722
        k(   74) = (   0.0833333  -0.0000000   0.0000000), wk =   0.0034722
        k(   75) = (  -0.0833333   0.0962250   0.0000000), wk =   0.0069444
        k(   76) = (   0.1250000   0.0240563   0.0000000), wk =   0.0069444
        k(   77) = (  -0.1250000   0.1202813   0.0000000), wk =   0.0069444
        k(   78) = (   0.1666667   0.0481125   0.0000000), wk =   0.0069444
        k(   79) = (  -0.1666667   0.1443376   0.0000000), wk =   0.0069444
        k(   80) = (   0.2083333   0.0721688   0.0000000), wk =   0.0069444
        k(   81) = (  -0.2083333   0.1683938   0.0000000), wk =   0.0069444
        k(   82) = (   0.2500000   0.0962250   0.0000000), wk =   0.0069444
        k(   83) = (  -0.2500000   0.1924501   0.0000000), wk =   0.0069444
        k(   84) = (   0.2916667   0.1202813   0.0000000), wk =   0.0069444
        k(   85) = (  -0.2916667   0.2165064   0.0000000), wk =   0.0069444
        k(   86) = (   0.3333333   0.1443376   0.0000000), wk =   0.0069444
        k(   87) = (  -0.3333333   0.2405626   0.0000000), wk =   0.0069444
        k(   88) = (   0.3750000   0.1683938   0.0000000), wk =   0.0069444
        k(   89) = (  -0.3750000   0.2646189   0.0000000), wk =   0.0069444
        k(   90) = (   0.4166667   0.1924501   0.0000000), wk =   0.0069444
        k(   91) = (  -0.4166667   0.2886751   0.0000000), wk =   0.0069444
        k(   92) = (   0.4583333   0.2165064   0.0000000), wk =   0.0069444
        k(   93) = (  -0.4583333   0.3127314   0.0000000), wk =   0.0069444
        k(   94) = (   0.5000000   0.2405626   0.0000000), wk =   0.0069444
        k(   95) = (   0.1666667  -0.0000000   0.0000000), wk =   0.0034722
        k(   96) = (  -0.1250000   0.1683938   0.0000000), wk =   0.0069444
        k(   97) = (   0.2083333   0.0240563   0.0000000), wk =   0.0069444
        k(   98) = (  -0.1666667   0.1924501   0.0000000), wk =   0.0069444
        k(   99) = (   0.2500000   0.0481125   0.0000000), wk =   0.0069444
        k(  100) = (  -0.2083333   0.2165064   0.0000000), wk =   0.0069444
        k(  101) = (   0.2916667   0.0721688   0.0000000), wk =   0.0069444
        k(  102) = (  -0.2500000   0.2405626   0.0000000), wk =   0.0069444
        k(  103) = (   0.3333333   0.0962250   0.0000000), wk =   0.0069444
        k(  104) = (  -0.2916667   0.2646189   0.0000000), wk =   0.0069444
        k(  105) = (   0.3750000   0.1202813   0.0000000), wk =   0.0069444
        k(  106) = (  -0.3333333   0.2886751   0.0000000), wk =   0.0069444
        k(  107) = (   0.4166667   0.1443376   0.0000000), wk =   0.0069444
        k(  108) = (  -0.3750000   0.3127314   0.0000000), wk =   0.0069444
        k(  109) = (   0.4583333   0.1683938   0.0000000), wk =   0.0069444
        k(  110) = (  -0.4166667   0.3367877   0.0000000), wk =   0.0069444
        k(  111) = (   0.5000000   0.1924501   0.0000000), wk =   0.0069444
        k(  112) = (  -0.4583333   0.3608439   0.0000000), wk =   0.0069444
        k(  113) = (   0.2500000   0.0000000   0.0000000), wk =   0.0034722
        k(  114) = (  -0.1666667   0.2405626   0.0000000), wk =   0.0069444
        k(  115) = (   0.2916667   0.0240563   0.0000000), wk =   0.0069444
        k(  116) = (  -0.2083333   0.2646189   0.0000000), wk =   0.0069444
        k(  117) = (   0.3333333   0.0481125   0.0000000), wk =   0.0069444
        k(  118) = (  -0.2500000   0.2886751   0.0000000), wk =   0.0069444
        k(  119) = (   0.3750000   0.0721688   0.0000000), wk =   0.0069444
        k(  120) = (  -0.2916667   0.3127314   0.0000000), wk =   0.0069444
        k(  121) = (   0.4166667   0.0962250   0.0000000), wk =   0.0069444
        k(  122) = (  -0.3333333   0.3367877   0.0000000), wk =   0.0069444
        k(  123) = (   0.4583333   0.1202813   0.0000000), wk =   0.0069444
        k(  124) = (  -0.3750000   0.3608439   0.0000000), wk =   0.0069444
        k(  125) = (   0.5000000   0.1443376   0.0000000), wk =   0.0069444
        k(  126) = (  -0.4166667   0.3849002   0.0000000), wk =   0.0069444
        k(  127) = (   0.5416667   0.1683938   0.0000000), wk =   0.0069444
        k(  128) = (   0.3333333  -0.0000000   0.0000000), wk =   0.0034722
        k(  129) = (  -0.2083333   0.3127314   0.0000000), wk =   0.0069444
        k(  130) = (   0.3750000   0.0240563   0.0000000), wk =   0.0069444
        k(  131) = (  -0.2500000   0.3367877   0.0000000), wk =   0.0069444
        k(  132) = (   0.4166667   0.0481125   0.0000000), wk =   0.0069444
        k(  133) = (  -0.2916667   0.3608439   0.0000000), wk =   0.0069444
        k(  134) = (   0.4583333   0.0721688   0.0000000), wk =   0.0069444
        k(  135) = (  -0.3333333   0.3849002   0.0000000), wk =   0.0069444
        k(  136) = (   0.5000000   0.0962250   0.0000000), wk =   0.0069444
        k(  137) = (  -0.3750000   0.4089564   0.0000000), wk =   0.0069444
        k(  138) = (   0.5416667   0.1202813   0.0000000), wk =   0.0069444
        k(  139) = (  -0.4166667   0.4330127   0.0000000), wk =   0.0069444
        k(  140) = (   0.4166667   0.0000000   0.0000000), wk =   0.0034722
        k(  141) = (  -0.2500000   0.3849002   0.0000000), wk =   0.0069444
        k(  142) = (   0.4583333   0.0240563   0.0000000), wk =   0.0069444
        k(  143) = (  -0.2916667   0.4089564   0.0000000), wk =   0.0069444
        k(  144) = (   0.5000000   0.0481125   0.0000000), wk =   0.0069444
        k(  145) = (  -0.3333333   0.4330127   0.0000000), wk =   0.0069444
        k(  146) = (   0.5416667   0.0721688   0.0000000), wk =   0.0069444
        k(  147) = (  -0.3750000   0.4570690   0.0000000), wk =   0.0069444
        k(  148) = (   0.5833333   0.0962250   0.0000000), wk =   0.0069444
        k(  149) = (   0.5000000   0.0000000   0.0000000), wk =   0.0034722
        k(  150) = (  -0.2916667   0.4570690   0.0000000), wk =   0.0069444
        k(  151) = (   0.5416667   0.0240563   0.0000000), wk =   0.0069444
        k(  152) = (  -0.3333333   0.4811252   0.0000000), wk =   0.0069444
        k(  153) = (   0.5833333   0.0481125   0.0000000), wk =   0.0069444
        k(  154) = (  -0.3750000   0.5051815   0.0000000), wk =   0.0069444
        k(  155) = (   0.5833333   0.0000000   0.0000000), wk =   0.0034722
        k(  156) = (  -0.3333333   0.5292377   0.0000000), wk =   0.0069444
        k(  157) = (   0.6250000   0.0240563   0.0000000), wk =   0.0069444
        k(  158) = (   0.0000000   0.0000000   0.0000000), wk =   0.0017361
        k(  159) = (   0.0000000   0.0481125   0.0000000), wk =   0.0034722
        k(  160) = (   0.0000000   0.0962250   0.0000000), wk =   0.0034722
        k(  161) = (   0.0000000   0.1443376   0.0000000), wk =   0.0034722
        k(  162) = (   0.0000000   0.1924501   0.0000000), wk =   0.0034722
        k(  163) = (   0.0000000   0.2405626   0.0000000), wk =   0.0034722
        k(  164) = (   0.0000000   0.2886751   0.0000000), wk =   0.0034722
        k(  165) = (   0.0000000   0.3367877   0.0000000), wk =   0.0034722
        k(  166) = (   0.0000000   0.3849002   0.0000000), wk =   0.0034722
        k(  167) = (   0.0000000   0.4330127   0.0000000), wk =   0.0034722
        k(  168) = (   0.0000000   0.4811252   0.0000000), wk =   0.0034722
        k(  169) = (   0.0000000   0.5292377   0.0000000), wk =   0.0034722
        k(  170) = (   0.0000000  -0.5773503   0.0000000), wk =   0.0017361
        k(  171) = (   0.0416667   0.0721688   0.0000000), wk =   0.0069444
        k(  172) = (   0.0416667   0.1202813   0.0000000), wk =   0.0069444
        k(  173) = (   0.0416667   0.1683938   0.0000000), wk =   0.0069444
        k(  174) = (   0.0416667   0.2165064   0.0000000), wk =   0.0069444
        k(  175) = (   0.0416667   0.2646189   0.0000000), wk =   0.0069444
        k(  176) = (   0.0416667   0.3127314   0.0000000), wk =   0.0069444
        k(  177) = (   0.0416667   0.3608439   0.0000000), wk =   0.0069444
        k(  178) = (   0.0416667   0.4089564   0.0000000), wk =   0.0069444
        k(  179) = (   0.0416667   0.4570690   0.0000000), wk =   0.0069444
        k(  180) = (   0.0416667   0.5051815   0.0000000), wk =   0.0069444
        k(  181) = (   0.0416667   0.5532940   0.0000000), wk =   0.0069444
        k(  182) = (   0.0833333   0.1443376   0.0000000), wk =   0.0069444
        k(  183) = (   0.0833333   0.1924501   0.0000000), wk =   0.0069444
        k(  184) = (   0.0833333   0.2405626   0.0000000), wk =   0.0069444
        k(  185) = (   0.0833333   0.2886751   0.0000000), wk =   0.0069444
        k(  186) = (   0.0833333   0.3367877   0.0000000), wk =   0.0069444
        k(  187) = (   0.0833333   0.3849002   0.0000000), wk =   0.0069444
        k(  188) = (   0.0833333   0.4330127   0.0000000), wk =   0.0069444
        k(  189) = (   0.0833333   0.4811252   0.0000000), wk =   0.0069444
        k(  190) = (   0.0833333   0.5292377   0.0000000), wk =   0.0069444
        k(  191) = (   0.0833333   0.5773503   0.0000000), wk =   0.0034722
        k(  192) = (   0.1250000   0.2165064   0.0000000), wk =   0.0069444
        k(  193) = (   0.1250000   0.2646189   0.0000000), wk =   0.0069444
        k(  194) = (   0.1250000   0.3127314   0.0000000), wk =   0.0069444
        k(  195) = (   0.1250000   0.3608439   0.0000000), wk =   0.0069444
        k(  196) = (   0.1250000   0.4089564   0.0000000), wk =   0.0069444
        k(  197) = (   0.1250000   0.4570690   0.0000000), wk =   0.0069444
        k(  198) = (   0.1250000   0.5051815   0.0000000), wk =   0.0069444
        k(  199) = (   0.1250000   0.5532940   0.0000000), wk =   0.0069444
        k(  200) = (   0.1666667   0.2886751   0.0000000), wk =   0.0069444
        k(  201) = (   0.1666667   0.3367877   0.0000000), wk =   0.0069444
        k(  202) = (   0.1666667   0.3849002   0.0000000), wk =   0.0069444
        k(  203) = (   0.1666667   0.4330127   0.0000000), wk =   0.0069444
        k(  204) = (   0.1666667   0.4811252   0.0000000), wk =   0.0069444
        k(  205) = (   0.1666667   0.5292377   0.0000000), wk =   0.0069444
        k(  206) = (   0.1666667   0.5773503   0.0000000), wk =   0.0034722
        k(  207) = (   0.2083333   0.3608439   0.0000000), wk =   0.0069444
        k(  208) = (   0.2083333   0.4089564   0.0000000), wk =   0.0069444
        k(  209) = (   0.2083333   0.4570690   0.0000000), wk =   0.0069444
        k(  210) = (   0.2083333   0.5051815   0.0000000), wk =   0.0069444
        k(  211) = (   0.2083333   0.5532940   0.0000000), wk =   0.0069444
        k(  212) = (   0.2500000   0.4330127   0.0000000), wk =   0.0069444
        k(  213) = (   0.2500000   0.4811252   0.0000000), wk =   0.0069444
        k(  214) = (   0.2500000   0.5292377   0.0000000), wk =   0.0069444
        k(  215) = (   0.2500000   0.5773503   0.0000000), wk =   0.0034722
        k(  216) = (   0.2916667   0.5051815   0.0000000), wk =   0.0069444
        k(  217) = (   0.2916667   0.5532940   0.0000000), wk =   0.0069444
        k(  218) = (   0.3333333   0.5773503   0.0000000), wk =   0.0034722
        k(  219) = (  -0.0416667   0.0240563   0.0000000), wk =   0.0069444
        k(  220) = (  -0.0833333   0.0481125   0.0000000), wk =   0.0069444
        k(  221) = (  -0.1250000   0.0721688   0.0000000), wk =   0.0069444
        k(  222) = (  -0.1666667   0.0962250   0.0000000), wk =   0.0069444
        k(  223) = (  -0.2083333   0.1202813   0.0000000), wk =   0.0069444
        k(  224) = (  -0.2500000   0.1443376   0.0000000), wk =   0.0069444
        k(  225) = (  -0.2916667   0.1683938   0.0000000), wk =   0.0069444
        k(  226) = (  -0.3333333   0.1924501   0.0000000), wk =   0.0069444
        k(  227) = (  -0.3750000   0.2165064   0.0000000), wk =   0.0069444
        k(  228) = (  -0.4166667   0.2405626   0.0000000), wk =   0.0069444
        k(  229) = (  -0.4583333   0.2646189   0.0000000), wk =   0.0069444
        k(  230) = (   0.5000000  -0.2886751   0.0000000), wk =   0.0034722
        k(  231) = (   0.0833333  -0.0000000   0.0000000), wk =   0.0034722
        k(  232) = (  -0.0833333   0.0962250   0.0000000), wk =   0.0069444
        k(  233) = (   0.1250000   0.0240563   0.0000000), wk =   0.0069444
        k(  234) = (  -0.1250000   0.1202813   0.0000000), wk =   0.0069444
        k(  235) = (   0.1666667   0.0481125   0.0000000), wk =   0.0069444
        k(  236) = (  -0.1666667   0.1443376   0.0000000), wk =   0.0069444
        k(  237) = (   0.2083333   0.0721688   0.0000000), wk =   0.0069444
        k(  238) = (  -0.2083333   0.1683938   0.0000000), wk =   0.0069444
        k(  239) = (   0.2500000   0.0962250   0.0000000), wk =   0.0069444
        k(  240) = (  -0.2500000   0.1924501   0.0000000), wk =   0.0069444
        k(  241) = (   0.2916667   0.1202813   0.0000000), wk =   0.0069444
        k(  242) = (  -0.2916667   0.2165064   0.0000000), wk =   0.0069444
        k(  243) = (   0.3333333   0.1443376   0.0000000), wk =   0.0069444
        k(  244) = (  -0.3333333   0.2405626   0.0000000), wk =   0.0069444
        k(  245) = (   0.3750000   0.1683938   0.0000000), wk =   0.0069444
        k(  246) = (  -0.3750000   0.2646189   0.0000000), wk =   0.0069444
        k(  247) = (   0.4166667   0.1924501   0.0000000), wk =   0.0069444
        k(  248) = (  -0.4166667   0.2886751   0.0000000), wk =   0.0069444
        k(  249) = (   0.4583333   0.2165064   0.0000000), wk =   0.0069444
        k(  250) = (  -0.4583333   0.3127314   0.0000000), wk =   0.0069444
        k(  251) = (   0.5000000   0.2405626   0.0000000), wk =   0.0069444
        k(  252) = (   0.1666667  -0.0000000   0.0000000), wk =   0.0034722
        k(  253) = (  -0.1250000   0.1683938   0.0000000), wk =   0.0069444
        k(  254) = (   0.2083333   0.0240563   0.0000000), wk =   0.0069444
        k(  255) = (  -0.1666667   0.1924501   0.0000000), wk =   0.0069444
        k(  256) = (   0.2500000   0.0481125   0.0000000), wk =   0.0069444
        k(  257) = (  -0.2083333   0.2165064   0.0000000), wk =   0.0069444
        k(  258) = (   0.2916667   0.0721688   0.0000000), wk =   0.0069444
        k(  259) = (  -0.2500000   0.2405626   0.0000000), wk =   0.0069444
        k(  260) = (   0.3333333   0.0962250   0.0000000), wk =   0.0069444
        k(  261) = (  -0.2916667   0.2646189   0.0000000), wk =   0.0069444
        k(  262) = (   0.3750000   0.1202813   0.0000000), wk =   0.0069444
        k(  263) = (  -0.3333333   0.2886751   0.0000000), wk =   0.0069444
        k(  264) = (   0.4166667   0.1443376   0.0000000), wk =   0.0069444
        k(  265) = (  -0.3750000   0.3127314   0.0000000), wk =   0.0069444
        k(  266) = (   0.4583333   0.1683938   0.0000000), wk =   0.0069444
        k(  267) = (  -0.4166667   0.3367877   0.0000000), wk =   0.0069444
        k(  268) = (   0.5000000   0.1924501   0.0000000), wk =   0.0069444
        k(  269) = (  -0.4583333   0.3608439   0.0000000), wk =   0.0069444
        k(  270) = (   0.2500000   0.0000000   0.0000000), wk =   0.0034722
        k(  271) = (  -0.1666667   0.2405626   0.0000000), wk =   0.0069444
        k(  272) = (   0.2916667   0.0240563   0.0000000), wk =   0.0069444
        k(  273) = (  -0.2083333   0.2646189   0.0000000), wk =   0.0069444
        k(  274) = (   0.3333333   0.0481125   0.0000000), wk =   0.0069444
        k(  275) = (  -0.2500000   0.2886751   0.0000000), wk =   0.0069444
        k(  276) = (   0.3750000   0.0721688   0.0000000), wk =   0.0069444
        k(  277) = (  -0.2916667   0.3127314   0.0000000), wk =   0.0069444
        k(  278) = (   0.4166667   0.0962250   0.0000000), wk =   0.0069444
        k(  279) = (  -0.3333333   0.3367877   0.0000000), wk =   0.0069444
        k(  280) = (   0.4583333   0.1202813   0.0000000), wk =   0.0069444
        k(  281) = (  -0.3750000   0.3608439   0.0000000), wk =   0.0069444
        k(  282) = (   0.5000000   0.1443376   0.0000000), wk =   0.0069444
        k(  283) = (  -0.4166667   0.3849002   0.0000000), wk =   0.0069444
        k(  284) = (   0.5416667   0.1683938   0.0000000), wk =   0.0069444
        k(  285) = (   0.3333333  -0.0000000   0.0000000), wk =   0.0034722
        k(  286) = (  -0.2083333   0.3127314   0.0000000), wk =   0.0069444
        k(  287) = (   0.3750000   0.0240563   0.0000000), wk =   0.0069444
        k(  288) = (  -0.2500000   0.3367877   0.0000000), wk =   0.0069444
        k(  289) = (   0.4166667   0.0481125   0.0000000), wk =   0.0069444
        k(  290) = (  -0.2916667   0.3608439   0.0000000), wk =   0.0069444
        k(  291) = (   0.4583333   0.0721688   0.0000000), wk =   0.0069444
        k(  292) = (  -0.3333333   0.3849002   0.0000000), wk =   0.0069444
        k(  293) = (   0.5000000   0.0962250   0.0000000), wk =   0.0069444
        k(  294) = (  -0.3750000   0.4089564   0.0000000), wk =   0.0069444
        k(  295) = (   0.5416667   0.1202813   0.0000000), wk =   0.0069444
        k(  296) = (  -0.4166667   0.4330127   0.0000000), wk =   0.0069444
        k(  297) = (   0.4166667   0.0000000   0.0000000), wk =   0.0034722
        k(  298) = (  -0.2500000   0.3849002   0.0000000), wk =   0.0069444
        k(  299) = (   0.4583333   0.0240563   0.0000000), wk =   0.0069444
        k(  300) = (  -0.2916667   0.4089564   0.0000000), wk =   0.0069444
        k(  301) = (   0.5000000   0.0481125   0.0000000), wk =   0.0069444
        k(  302) = (  -0.3333333   0.4330127   0.0000000), wk =   0.0069444
        k(  303) = (   0.5416667   0.0721688   0.0000000), wk =   0.0069444
        k(  304) = (  -0.3750000   0.4570690   0.0000000), wk =   0.0069444
        k(  305) = (   0.5833333   0.0962250   0.0000000), wk =   0.0069444
        k(  306) = (   0.5000000   0.0000000   0.0000000), wk =   0.0034722
        k(  307) = (  -0.2916667   0.4570690   0.0000000), wk =   0.0069444
        k(  308) = (   0.5416667   0.0240563   0.0000000), wk =   0.0069444
        k(  309) = (  -0.3333333   0.4811252   0.0000000), wk =   0.0069444
        k(  310) = (   0.5833333   0.0481125   0.0000000), wk =   0.0069444
        k(  311) = (  -0.3750000   0.5051815   0.0000000), wk =   0.0069444
        k(  312) = (   0.5833333   0.0000000   0.0000000), wk =   0.0034722
        k(  313) = (  -0.3333333   0.5292377   0.0000000), wk =   0.0069444
        k(  314) = (   0.6250000   0.0240563   0.0000000), wk =   0.0069444

                       cryst. coord.
        k(    1) = (   0.0000000   0.0000000   0.0000000), wk =   0.0017361
        k(    2) = (   0.0000000   0.0416667   0.0000000), wk =   0.0034722
        k(    3) = (   0.0000000   0.0833333   0.0000000), wk =   0.0034722
        k(    4) = (   0.0000000   0.1250000   0.0000000), wk =   0.0034722
        k(    5) = (   0.0000000   0.1666667   0.0000000), wk =   0.0034722
        k(    6) = (   0.0000000   0.2083333   0.0000000), wk =   0.0034722
        k(    7) = (   0.0000000   0.2500000   0.0000000), wk =   0.0034722
        k(    8) = (   0.0000000   0.2916667   0.0000000), wk =   0.0034722
        k(    9) = (   0.0000000   0.3333333   0.0000000), wk =   0.0034722
        k(   10) = (   0.0000000   0.3750000   0.0000000), wk =   0.0034722
        k(   11) = (   0.0000000   0.4166667   0.0000000), wk =   0.0034722
        k(   12) = (   0.0000000   0.4583333   0.0000000), wk =   0.0034722
        k(   13) = (   0.0000000  -0.5000000   0.0000000), wk =   0.0017361
        k(   14) = (   0.0416667   0.0416667   0.0000000), wk =   0.0069444
        k(   15) = (   0.0416667   0.0833333   0.0000000), wk =   0.0069444
        k(   16) = (   0.0416667   0.1250000   0.0000000), wk =   0.0069444
        k(   17) = (   0.0416667   0.1666667   0.0000000), wk =   0.0069444
        k(   18) = (   0.0416667   0.2083333   0.0000000), wk =   0.0069444
        k(   19) = (   0.0416667   0.2500000   0.0000000), wk =   0.0069444
        k(   20) = (   0.0416667   0.2916667   0.0000000), wk =   0.0069444
        k(   21) = (   0.0416667   0.3333333   0.0000000), wk =   0.0069444
        k(   22) = (   0.0416667   0.3750000   0.0000000), wk =   0.0069444
        k(   23) = (   0.0416667   0.4166667   0.0000000), wk =   0.0069444
        k(   24) = (   0.0416667   0.4583333   0.0000000), wk =   0.0069444
        k(   25) = (   0.0833333   0.0833333   0.0000000), wk =   0.0069444
        k(   26) = (   0.0833333   0.1250000   0.0000000), wk =   0.0069444
        k(   27) = (   0.0833333   0.1666667   0.0000000), wk =   0.0069444
        k(   28) = (   0.0833333   0.2083333   0.0000000), wk =   0.0069444
        k(   29) = (   0.0833333   0.2500000   0.0000000), wk =   0.0069444
        k(   30) = (   0.0833333   0.2916667   0.0000000), wk =   0.0069444
        k(   31) = (   0.0833333   0.3333333   0.0000000), wk =   0.0069444
        k(   32) = (   0.0833333   0.3750000   0.0000000), wk =   0.0069444
        k(   33) = (   0.0833333   0.4166667   0.0000000), wk =   0.0069444
        k(   34) = (   0.0833333   0.4583333   0.0000000), wk =   0.0034722
        k(   35) = (   0.1250000   0.1250000   0.0000000), wk =   0.0069444
        k(   36) = (   0.1250000   0.1666667   0.0000000), wk =   0.0069444
        k(   37) = (   0.1250000   0.2083333   0.0000000), wk =   0.0069444
        k(   38) = (   0.1250000   0.2500000   0.0000000), wk =   0.0069444
        k(   39) = (   0.1250000   0.2916667   0.0000000), wk =   0.0069444
        k(   40) = (   0.1250000   0.3333333   0.0000000), wk =   0.0069444
        k(   41) = (   0.1250000   0.3750000   0.0000000), wk =   0.0069444
        k(   42) = (   0.1250000   0.4166667   0.0000000), wk =   0.0069444
        k(   43) = (   0.1666667   0.1666667   0.0000000), wk =   0.0069444
        k(   44) = (   0.1666667   0.2083333   0.0000000), wk =   0.0069444
        k(   45) = (   0.1666667   0.2500000   0.0000000), wk =   0.0069444
        k(   46) = (   0.1666667   0.2916667   0.0000000), wk =   0.0069444
        k(   47) = (   0.1666667   0.3333333   0.0000000), wk =   0.0069444
        k(   48) = (   0.1666667   0.3750000   0.0000000), wk =   0.0069444
        k(   49) = (   0.1666667   0.4166667   0.0000000), wk =   0.0034722
        k(   50) = (   0.2083333   0.2083333   0.0000000), wk =   0.0069444
        k(   51) = (   0.2083333   0.2500000   0.0000000), wk =   0.0069444
        k(   52) = (   0.2083333   0.2916667   0.0000000), wk =   0.0069444
        k(   53) = (   0.2083333   0.3333333   0.0000000), wk =   0.0069444
        k(   54) = (   0.2083333   0.3750000   0.0000000), wk =   0.0069444
        k(   55) = (   0.2500000   0.2500000   0.0000000), wk =   0.0069444
        k(   56) = (   0.2500000   0.2916667   0.0000000), wk =   0.0069444
        k(   57) = (   0.2500000   0.3333333   0.0000000), wk =   0.0069444
        k(   58) = (   0.2500000   0.3750000   0.0000000), wk =   0.0034722
        k(   59) = (   0.2916667   0.2916667   0.0000000), wk =   0.0069444
        k(   60) = (   0.2916667   0.3333333   0.0000000), wk =   0.0069444
        k(   61) = (   0.3333333   0.3333333   0.0000000), wk =   0.0034722
        k(   62) = (  -0.0416667   0.0416667   0.0000000), wk =   0.0069444
        k(   63) = (  -0.0833333   0.0833333   0.0000000), wk =   0.0069444
        k(   64) = (  -0.1250000   0.1250000   0.0000000), wk =   0.0069444
        k(   65) = (  -0.1666667   0.1666667   0.0000000), wk =   0.0069444
        k(   66) = (  -0.2083333   0.2083333   0.0000000), wk =   0.0069444
        k(   67) = (  -0.2500000   0.2500000   0.0000000), wk =   0.0069444
        k(   68) = (  -0.2916667   0.2916667   0.0000000), wk =   0.0069444
        k(   69) = (  -0.3333333   0.3333333   0.0000000), wk =   0.0069444
        k(   70) = (  -0.3750000   0.3750000   0.0000000), wk =   0.0069444
        k(   71) = (  -0.4166667   0.4166667   0.0000000), wk =   0.0069444
        k(   72) = (  -0.4583333   0.4583333   0.0000000), wk =   0.0069444
        k(   73) = (   0.5000000  -0.5000000   0.0000000), wk =   0.0034722
        k(   74) = (   0.0833333  -0.0416667   0.0000000), wk =   0.0034722
        k(   75) = (  -0.0833333   0.1250000   0.0000000), wk =   0.0069444
        k(   76) = (   0.1250000  -0.0416667   0.0000000), wk =   0.0069444
        k(   77) = (  -0.1250000   0.1666667   0.0000000), wk =   0.0069444
        k(   78) = (   0.1666667  -0.0416667   0.0000000), wk =   0.0069444
        k(   79) = (  -0.1666667   0.2083333   0.0000000), wk =   0.0069444
        k(   80) = (   0.2083333  -0.0416667   0.0000000), wk =   0.0069444
        k(   81) = (  -0.2083333   0.2500000   0.0000000), wk =   0.0069444
        k(   82) = (   0.2500000  -0.0416667   0.0000000), wk =   0.0069444
        k(   83) = (  -0.2500000   0.2916667   0.0000000), wk =   0.0069444
        k(   84) = (   0.2916667  -0.0416667   0.0000000), wk =   0.0069444
        k(   85) = (  -0.2916667   0.3333333   0.0000000), wk =   0.0069444
        k(   86) = (   0.3333333  -0.0416667   0.0000000), wk =   0.0069444
        k(   87) = (  -0.3333333   0.3750000   0.0000000), wk =   0.0069444
        k(   88) = (   0.3750000  -0.0416667   0.0000000), wk =   0.0069444
        k(   89) = (  -0.3750000   0.4166667   0.0000000), wk =   0.0069444
        k(   90) = (   0.4166667  -0.0416667   0.0000000), wk =   0.0069444
        k(   91) = (  -0.4166667   0.4583333   0.0000000), wk =   0.0069444
        k(   92) = (   0.4583333  -0.0416667   0.0000000), wk =   0.0069444
        k(   93) = (  -0.4583333   0.5000000   0.0000000), wk =   0.0069444
        k(   94) = (   0.5000000  -0.0416667   0.0000000), wk =   0.0069444
        k(   95) = (   0.1666667  -0.0833333   0.0000000), wk =   0.0034722
        k(   96) = (  -0.1250000   0.2083333   0.0000000), wk =   0.0069444
        k(   97) = (   0.2083333  -0.0833333   0.0000000), wk =   0.0069444
        k(   98) = (  -0.1666667   0.2500000   0.0000000), wk =   0.0069444
        k(   99) = (   0.2500000  -0.0833333   0.0000000), wk =   0.0069444
        k(  100) = (  -0.2083333   0.2916667   0.0000000), wk =   0.0069444
        k(  101) = (   0.2916667  -0.0833333   0.0000000), wk =   0.0069444
        k(  102) = (  -0.2500000   0.3333333   0.0000000), wk =   0.0069444
        k(  103) = (   0.3333333  -0.0833333   0.0000000), wk =   0.0069444
        k(  104) = (  -0.2916667   0.3750000   0.0000000), wk =   0.0069444
        k(  105) = (   0.3750000  -0.0833333   0.0000000), wk =   0.0069444
        k(  106) = (  -0.3333333   0.4166667   0.0000000), wk =   0.0069444
        k(  107) = (   0.4166667  -0.0833333   0.0000000), wk =   0.0069444
        k(  108) = (  -0.3750000   0.4583333   0.0000000), wk =   0.0069444
        k(  109) = (   0.4583333  -0.0833333   0.0000000), wk =   0.0069444
        k(  110) = (  -0.4166667   0.5000000   0.0000000), wk =   0.0069444
        k(  111) = (   0.5000000  -0.0833333   0.0000000), wk =   0.0069444
        k(  112) = (  -0.4583333   0.5416667   0.0000000), wk =   0.0069444
        k(  113) = (   0.2500000  -0.1250000   0.0000000), wk =   0.0034722
        k(  114) = (  -0.1666667   0.2916667   0.0000000), wk =   0.0069444
        k(  115) = (   0.2916667  -0.1250000   0.0000000), wk =   0.0069444
        k(  116) = (  -0.2083333   0.3333333   0.0000000), wk =   0.0069444
        k(  117) = (   0.3333333  -0.1250000   0.0000000), wk =   0.0069444
        k(  118) = (  -0.2500000   0.3750000   0.0000000), wk =   0.0069444
        k(  119) = (   0.3750000  -0.1250000   0.0000000), wk =   0.0069444
        k(  120) = (  -0.2916667   0.4166667   0.0000000), wk =   0.0069444
        k(  121) = (   0.4166667  -0.1250000   0.0000000), wk =   0.0069444
        k(  122) = (  -0.3333333   0.4583333   0.0000000), wk =   0.0069444
        k(  123) = (   0.4583333  -0.1250000   0.0000000), wk =   0.0069444
        k(  124) = (  -0.3750000   0.5000000   0.0000000), wk =   0.0069444
        k(  125) = (   0.5000000  -0.1250000   0.0000000), wk =   0.0069444
        k(  126) = (  -0.4166667   0.5416667   0.0000000), wk =   0.0069444
        k(  127) = (   0.5416667  -0.1250000   0.0000000), wk =   0.0069444
        k(  128) = (   0.3333333  -0.1666667   0.0000000), wk =   0.0034722
        k(  129) = (  -0.2083333   0.3750000   0.0000000), wk =   0.0069444
        k(  130) = (   0.3750000  -0.1666667   0.0000000), wk =   0.0069444
        k(  131) = (  -0.2500000   0.4166667   0.0000000), wk =   0.0069444
        k(  132) = (   0.4166667  -0.1666667   0.0000000), wk =   0.0069444
        k(  133) = (  -0.2916667   0.4583333   0.0000000), wk =   0.0069444
        k(  134) = (   0.4583333  -0.1666667   0.0000000), wk =   0.0069444
        k(  135) = (  -0.3333333   0.5000000   0.0000000), wk =   0.0069444
        k(  136) = (   0.5000000  -0.1666667   0.0000000), wk =   0.0069444
        k(  137) = (  -0.3750000   0.5416667   0.0000000), wk =   0.0069444
        k(  138) = (   0.5416667  -0.1666667   0.0000000), wk =   0.0069444
        k(  139) = (  -0.4166667   0.5833333   0.0000000), wk =   0.0069444
        k(  140) = (   0.4166667  -0.2083333   0.0000000), wk =   0.0034722
        k(  141) = (  -0.2500000   0.4583333   0.0000000), wk =   0.0069444
        k(  142) = (   0.4583333  -0.2083333   0.0000000), wk =   0.0069444
        k(  143) = (  -0.2916667   0.5000000   0.0000000), wk =   0.0069444
        k(  144) = (   0.5000000  -0.2083333   0.0000000), wk =   0.0069444
        k(  145) = (  -0.3333333   0.5416667   0.0000000), wk =   0.0069444
        k(  146) = (   0.5416667  -0.2083333   0.0000000), wk =   0.0069444
        k(  147) = (  -0.3750000   0.5833333   0.0000000), wk =   0.0069444
        k(  148) = (   0.5833333  -0.2083333   0.0000000), wk =   0.0069444
        k(  149) = (   0.5000000  -0.2500000   0.0000000), wk =   0.0034722
        k(  150) = (  -0.2916667   0.5416667   0.0000000), wk =   0.0069444
        k(  151) = (   0.5416667  -0.2500000   0.0000000), wk =   0.0069444
        k(  152) = (  -0.3333333   0.5833333   0.0000000), wk =   0.0069444
        k(  153) = (   0.5833333  -0.2500000   0.0000000), wk =   0.0069444
        k(  154) = (  -0.3750000   0.6250000   0.0000000), wk =   0.0069444
        k(  155) = (   0.5833333  -0.2916667   0.0000000), wk =   0.0034722
        k(  156) = (  -0.3333333   0.6250000   0.0000000), wk =   0.0069444
        k(  157) = (   0.6250000  -0.2916667   0.0000000), wk =   0.0069444
        k(  158) = (   0.0000000   0.0000000   0.0000000), wk =   0.0017361
        k(  159) = (   0.0000000   0.0416667   0.0000000), wk =   0.0034722
        k(  160) = (   0.0000000   0.0833333   0.0000000), wk =   0.0034722
        k(  161) = (   0.0000000   0.1250000   0.0000000), wk =   0.0034722
        k(  162) = (   0.0000000   0.1666667   0.0000000), wk =   0.0034722
        k(  163) = (   0.0000000   0.2083333   0.0000000), wk =   0.0034722
        k(  164) = (   0.0000000   0.2500000   0.0000000), wk =   0.0034722
        k(  165) = (   0.0000000   0.2916667   0.0000000), wk =   0.0034722
        k(  166) = (   0.0000000   0.3333333   0.0000000), wk =   0.0034722
        k(  167) = (   0.0000000   0.3750000   0.0000000), wk =   0.0034722
        k(  168) = (   0.0000000   0.4166667   0.0000000), wk =   0.0034722
        k(  169) = (   0.0000000   0.4583333   0.0000000), wk =   0.0034722
        k(  170) = (   0.0000000  -0.5000000   0.0000000), wk =   0.0017361
        k(  171) = (   0.0416667   0.0416667   0.0000000), wk =   0.0069444
        k(  172) = (   0.0416667   0.0833333   0.0000000), wk =   0.0069444
        k(  173) = (   0.0416667   0.1250000   0.0000000), wk =   0.0069444
        k(  174) = (   0.0416667   0.1666667   0.0000000), wk =   0.0069444
        k(  175) = (   0.0416667   0.2083333   0.0000000), wk =   0.0069444
        k(  176) = (   0.0416667   0.2500000   0.0000000), wk =   0.0069444
        k(  177) = (   0.0416667   0.2916667   0.0000000), wk =   0.0069444
        k(  178) = (   0.0416667   0.3333333   0.0000000), wk =   0.0069444
        k(  179) = (   0.0416667   0.3750000   0.0000000), wk =   0.0069444
        k(  180) = (   0.0416667   0.4166667   0.0000000), wk =   0.0069444
        k(  181) = (   0.0416667   0.4583333   0.0000000), wk =   0.0069444
        k(  182) = (   0.0833333   0.0833333   0.0000000), wk =   0.0069444
        k(  183) = (   0.0833333   0.1250000   0.0000000), wk =   0.0069444
        k(  184) = (   0.0833333   0.1666667   0.0000000), wk =   0.0069444
        k(  185) = (   0.0833333   0.2083333   0.0000000), wk =   0.0069444
        k(  186) = (   0.0833333   0.2500000   0.0000000), wk =   0.0069444
        k(  187) = (   0.0833333   0.2916667   0.0000000), wk =   0.0069444
        k(  188) = (   0.0833333   0.3333333   0.0000000), wk =   0.0069444
        k(  189) = (   0.0833333   0.3750000   0.0000000), wk =   0.0069444
        k(  190) = (   0.0833333   0.4166667   0.0000000), wk =   0.0069444
        k(  191) = (   0.0833333   0.4583333   0.0000000), wk =   0.0034722
        k(  192) = (   0.1250000   0.1250000   0.0000000), wk =   0.0069444
        k(  193) = (   0.1250000   0.1666667   0.0000000), wk =   0.0069444
        k(  194) = (   0.1250000   0.2083333   0.0000000), wk =   0.0069444
        k(  195) = (   0.1250000   0.2500000   0.0000000), wk =   0.0069444
        k(  196) = (   0.1250000   0.2916667   0.0000000), wk =   0.0069444
        k(  197) = (   0.1250000   0.3333333   0.0000000), wk =   0.0069444
        k(  198) = (   0.1250000   0.3750000   0.0000000), wk =   0.0069444
        k(  199) = (   0.1250000   0.4166667   0.0000000), wk =   0.0069444
        k(  200) = (   0.1666667   0.1666667   0.0000000), wk =   0.0069444
        k(  201) = (   0.1666667   0.2083333   0.0000000), wk =   0.0069444
        k(  202) = (   0.1666667   0.2500000   0.0000000), wk =   0.0069444
        k(  203) = (   0.1666667   0.2916667   0.0000000), wk =   0.0069444
        k(  204) = (   0.1666667   0.3333333   0.0000000), wk =   0.0069444
        k(  205) = (   0.1666667   0.3750000   0.0000000), wk =   0.0069444
        k(  206) = (   0.1666667   0.4166667   0.0000000), wk =   0.0034722
        k(  207) = (   0.2083333   0.2083333   0.0000000), wk =   0.0069444
        k(  208) = (   0.2083333   0.2500000   0.0000000), wk =   0.0069444
        k(  209) = (   0.2083333   0.2916667   0.0000000), wk =   0.0069444
        k(  210) = (   0.2083333   0.3333333   0.0000000), wk =   0.0069444
        k(  211) = (   0.2083333   0.3750000   0.0000000), wk =   0.0069444
        k(  212) = (   0.2500000   0.2500000   0.0000000), wk =   0.0069444
        k(  213) = (   0.2500000   0.2916667   0.0000000), wk =   0.0069444
        k(  214) = (   0.2500000   0.3333333   0.0000000), wk =   0.0069444
        k(  215) = (   0.2500000   0.3750000   0.0000000), wk =   0.0034722
        k(  216) = (   0.2916667   0.2916667   0.0000000), wk =   0.0069444
        k(  217) = (   0.2916667   0.3333333   0.0000000), wk =   0.0069444
        k(  218) = (   0.3333333   0.3333333   0.0000000), wk =   0.0034722
        k(  219) = (  -0.0416667   0.0416667   0.0000000), wk =   0.0069444
        k(  220) = (  -0.0833333   0.0833333   0.0000000), wk =   0.0069444
        k(  221) = (  -0.1250000   0.1250000   0.0000000), wk =   0.0069444
        k(  222) = (  -0.1666667   0.1666667   0.0000000), wk =   0.0069444
        k(  223) = (  -0.2083333   0.2083333   0.0000000), wk =   0.0069444
        k(  224) = (  -0.2500000   0.2500000   0.0000000), wk =   0.0069444
        k(  225) = (  -0.2916667   0.2916667   0.0000000), wk =   0.0069444
        k(  226) = (  -0.3333333   0.3333333   0.0000000), wk =   0.0069444
        k(  227) = (  -0.3750000   0.3750000   0.0000000), wk =   0.0069444
        k(  228) = (  -0.4166667   0.4166667   0.0000000), wk =   0.0069444
        k(  229) = (  -0.4583333   0.4583333   0.0000000), wk =   0.0069444
        k(  230) = (   0.5000000  -0.5000000   0.0000000), wk =   0.0034722
        k(  231) = (   0.0833333  -0.0416667   0.0000000), wk =   0.0034722
        k(  232) = (  -0.0833333   0.1250000   0.0000000), wk =   0.0069444
        k(  233) = (   0.1250000  -0.0416667   0.0000000), wk =   0.0069444
        k(  234) = (  -0.1250000   0.1666667   0.0000000), wk =   0.0069444
        k(  235) = (   0.1666667  -0.0416667   0.0000000), wk =   0.0069444
        k(  236) = (  -0.1666667   0.2083333   0.0000000), wk =   0.0069444
        k(  237) = (   0.2083333  -0.0416667   0.0000000), wk =   0.0069444
        k(  238) = (  -0.2083333   0.2500000   0.0000000), wk =   0.0069444
        k(  239) = (   0.2500000  -0.0416667   0.0000000), wk =   0.0069444
        k(  240) = (  -0.2500000   0.2916667   0.0000000), wk =   0.0069444
        k(  241) = (   0.2916667  -0.0416667   0.0000000), wk =   0.0069444
        k(  242) = (  -0.2916667   0.3333333   0.0000000), wk =   0.0069444
        k(  243) = (   0.3333333  -0.0416667   0.0000000), wk =   0.0069444
        k(  244) = (  -0.3333333   0.3750000   0.0000000), wk =   0.0069444
        k(  245) = (   0.3750000  -0.0416667   0.0000000), wk =   0.0069444
        k(  246) = (  -0.3750000   0.4166667   0.0000000), wk =   0.0069444
        k(  247) = (   0.4166667  -0.0416667   0.0000000), wk =   0.0069444
        k(  248) = (  -0.4166667   0.4583333   0.0000000), wk =   0.0069444
        k(  249) = (   0.4583333  -0.0416667   0.0000000), wk =   0.0069444
        k(  250) = (  -0.4583333   0.5000000   0.0000000), wk =   0.0069444
        k(  251) = (   0.5000000  -0.0416667   0.0000000), wk =   0.0069444
        k(  252) = (   0.1666667  -0.0833333   0.0000000), wk =   0.0034722
        k(  253) = (  -0.1250000   0.2083333   0.0000000), wk =   0.0069444
        k(  254) = (   0.2083333  -0.0833333   0.0000000), wk =   0.0069444
        k(  255) = (  -0.1666667   0.2500000   0.0000000), wk =   0.0069444
        k(  256) = (   0.2500000  -0.0833333   0.0000000), wk =   0.0069444
        k(  257) = (  -0.2083333   0.2916667   0.0000000), wk =   0.0069444
        k(  258) = (   0.2916667  -0.0833333   0.0000000), wk =   0.0069444
        k(  259) = (  -0.2500000   0.3333333   0.0000000), wk =   0.0069444
        k(  260) = (   0.3333333  -0.0833333   0.0000000), wk =   0.0069444
        k(  261) = (  -0.2916667   0.3750000   0.0000000), wk =   0.0069444
        k(  262) = (   0.3750000  -0.0833333   0.0000000), wk =   0.0069444
        k(  263) = (  -0.3333333   0.4166667   0.0000000), wk =   0.0069444
        k(  264) = (   0.4166667  -0.0833333   0.0000000), wk =   0.0069444
        k(  265) = (  -0.3750000   0.4583333   0.0000000), wk =   0.0069444
        k(  266) = (   0.4583333  -0.0833333   0.0000000), wk =   0.0069444
        k(  267) = (  -0.4166667   0.5000000   0.0000000), wk =   0.0069444
        k(  268) = (   0.5000000  -0.0833333   0.0000000), wk =   0.0069444
        k(  269) = (  -0.4583333   0.5416667   0.0000000), wk =   0.0069444
        k(  270) = (   0.2500000  -0.1250000   0.0000000), wk =   0.0034722
        k(  271) = (  -0.1666667   0.2916667   0.0000000), wk =   0.0069444
        k(  272) = (   0.2916667  -0.1250000   0.0000000), wk =   0.0069444
        k(  273) = (  -0.2083333   0.3333333   0.0000000), wk =   0.0069444
        k(  274) = (   0.3333333  -0.1250000   0.0000000), wk =   0.0069444
        k(  275) = (  -0.2500000   0.3750000   0.0000000), wk =   0.0069444
        k(  276) = (   0.3750000  -0.1250000   0.0000000), wk =   0.0069444
        k(  277) = (  -0.2916667   0.4166667   0.0000000), wk =   0.0069444
        k(  278) = (   0.4166667  -0.1250000   0.0000000), wk =   0.0069444
        k(  279) = (  -0.3333333   0.4583333   0.0000000), wk =   0.0069444
        k(  280) = (   0.4583333  -0.1250000   0.0000000), wk =   0.0069444
        k(  281) = (  -0.3750000   0.5000000   0.0000000), wk =   0.0069444
        k(  282) = (   0.5000000  -0.1250000   0.0000000), wk =   0.0069444
        k(  283) = (  -0.4166667   0.5416667   0.0000000), wk =   0.0069444
        k(  284) = (   0.5416667  -0.1250000   0.0000000), wk =   0.0069444
        k(  285) = (   0.3333333  -0.1666667   0.0000000), wk =   0.0034722
        k(  286) = (  -0.2083333   0.3750000   0.0000000), wk =   0.0069444
        k(  287) = (   0.3750000  -0.1666667   0.0000000), wk =   0.0069444
        k(  288) = (  -0.2500000   0.4166667   0.0000000), wk =   0.0069444
        k(  289) = (   0.4166667  -0.1666667   0.0000000), wk =   0.0069444
        k(  290) = (  -0.2916667   0.4583333   0.0000000), wk =   0.0069444
        k(  291) = (   0.4583333  -0.1666667   0.0000000), wk =   0.0069444
        k(  292) = (  -0.3333333   0.5000000   0.0000000), wk =   0.0069444
        k(  293) = (   0.5000000  -0.1666667   0.0000000), wk =   0.0069444
        k(  294) = (  -0.3750000   0.5416667   0.0000000), wk =   0.0069444
        k(  295) = (   0.5416667  -0.1666667   0.0000000), wk =   0.0069444
        k(  296) = (  -0.4166667   0.5833333   0.0000000), wk =   0.0069444
        k(  297) = (   0.4166667  -0.2083333   0.0000000), wk =   0.0034722
        k(  298) = (  -0.2500000   0.4583333   0.0000000), wk =   0.0069444
        k(  299) = (   0.4583333  -0.2083333   0.0000000), wk =   0.0069444
        k(  300) = (  -0.2916667   0.5000000   0.0000000), wk =   0.0069444
        k(  301) = (   0.5000000  -0.2083333   0.0000000), wk =   0.0069444
        k(  302) = (  -0.3333333   0.5416667   0.0000000), wk =   0.0069444
        k(  303) = (   0.5416667  -0.2083333   0.0000000), wk =   0.0069444
        k(  304) = (  -0.3750000   0.5833333   0.0000000), wk =   0.0069444
        k(  305) = (   0.5833333  -0.2083333   0.0000000), wk =   0.0069444
        k(  306) = (   0.5000000  -0.2500000   0.0000000), wk =   0.0034722
        k(  307) = (  -0.2916667   0.5416667   0.0000000), wk =   0.0069444
        k(  308) = (   0.5416667  -0.2500000   0.0000000), wk =   0.0069444
        k(  309) = (  -0.3333333   0.5833333   0.0000000), wk =   0.0069444
        k(  310) = (   0.5833333  -0.2500000   0.0000000), wk =   0.0069444
        k(  311) = (  -0.3750000   0.6250000   0.0000000), wk =   0.0069444
        k(  312) = (   0.5833333  -0.2916667   0.0000000), wk =   0.0034722
        k(  313) = (  -0.3333333   0.6250000   0.0000000), wk =   0.0069444
        k(  314) = (   0.6250000  -0.2916667   0.0000000), wk =   0.0069444

     Dense  grid:    96043 G-vectors     FFT dimensions: (  30,  30, 243)

     Smooth grid:    24369 G-vectors     FFT dimensions: (  20,  20, 160)

     Largest allocated arrays     est. size (Mb)     dimensions
        Kohn-Sham Wavefunctions         0.75 Mb     (    3069,   16)
        NL pseudopotentials             1.50 Mb     (    3069,   32)
        Each V/rho on FFT grid          6.67 Mb     (  218700,   2)
        Each G-vector array             0.73 Mb     (   96043)
        G-vector shells                 0.04 Mb     (    4763)
     Largest temporary arrays     est. size (Mb)     dimensions
        Auxiliary wavefunctions         3.00 Mb     (    3069,   64)
        Each subspace H/S matrix        0.06 Mb     (      64,   64)
        Each <psi_i|beta_j> matrix      0.01 Mb     (      32,   16)
        Arrays for rho mixing          26.70 Mb     (  218700,    8)

     Initial potential from superposition of free atoms

     starting charge   15.99979, renormalised to   16.00000

     negative rho (up, down):  8.054E-06 2.685E-06
     Starting wfc are   16 randomized atomic wfcs

     total cpu time spent up to now is       17.4 secs

     per-process dynamical memory:   297.0 Mb

     Self-consistent Calculation

     iteration #  1     ecut=    40.00 Ry     beta=0.30
     Davidson diagonalization with overlap
     ethr =  1.00E-02,  avg # of iterations =  6.3

     negative rho (up, down):  4.899E-06 1.512E-06

     Magnetic moment per site:
     atom:    1    charge:    1.6475    magn:    0.5748    constr:    0.0000
     atom:    2    charge:    1.6478    magn:    0.5750    constr:    0.0000
     atom:    3    charge:    1.6467    magn:    0.5745    constr:    0.0000
     atom:    4    charge:    1.6470    magn:    0.5747    constr:    0.0000

     total cpu time spent up to now is       95.4 secs

 ------ SPIN UP ------------


          k = 0.0000 0.0000 0.0000     band energies (ev):

   -25.4492 -25.3109 -12.7609 -11.8742  -9.8743  -9.8725  -9.8653  -9.8634
     2.0883   2.0906   2.1121   2.1143   2.1473   3.1575   5.3925   5.4980

     occupation numbers 
     1.0000   1.0000   1.0000   1.0000   1.0000   1.0000   1.0000   1.0000
     0.0000   0.0000   0.0000   0.0000   0.0000   0.0000   0.0000   0.0000

          k = 0.0000 0.0481 0.0000     band energies (ev):

   -25.4097 -25.2717 -12.7129 -11.8281 -10.0264 -10.0154  -9.9533  -9.9428
     2.0998   2.1230   2.2516   2.2546   2.2784   3.2208   5.2678   5.3761

     occupation numbers 
     1.0000   1.0000   1.0000   1.0000   1.0000   1.0000   1.0000   1.0000
     0.0000   0.0000   0.0000   0.0000   0.0000   0.0000   0.0000   0.0000

          k = 0.0000 0.0962 0.0000     band energies (ev):

   -25.2912 -25.1544 -12.5695 -11.6901 -10.4613 -10.4457 -10.1800 -10.1666
     2.1939   2.2096   2.6689   2.7373   2.7602   3.3881   4.8951   5.0145

     occupation numbers 
     1.0000   1.0000   1.0000   1.0000   1.0000   1.0000   1.0000   1.0000
     0.0000   0.0000   0.0000   0.0000   0.0000   0.0000   0.0000   0.0000

          k = 0.0000 0.1443 0.0000     band energies (ev):

   -25.0942 -24.9591 -12.3327 -11.4615 -11.1267 -11.1046 -10.5140 -10.4975
     2.2087   2.2605   2.7063   3.4942   3.5165   3.6565   4.3068   4.4433

     occupation numbers 
     1.0000   1.0000   1.0000   1.0000   1.0000   1.0000   1.0000   1.0000
     0.0000   0.0000   0.0000   0.0000   0.0000   0.0000   0.0000   0.0000

          k = 0.0000 0.1925 0.0000     band energies (ev):

   -24.8192 -24.6866 -12.0042 -11.9592 -11.9306 -11.1443 -10.9099 -10.8909
     2.2357   2.2864   3.0802   3.5286   3.7020   4.0426   4.4728   4.4939

     occupation numbers 
     1.0000   1.0000   1.0000   1.0000   1.0000   1.0000   1.0000   1.0000
     0.0000   0.0000   0.0000   0.0000   0.0000   0.0000   0.0000   0.0000

          k = 0.0000 0.2406 0.0000     band energies (ev):

   -24.4673 -24.3377 -12.9036 -12.8663 -11.5842 -11.3271 -11.3060 -10.7424
     2.1872   2.2570   2.6250   2.8356   3.5132   4.4938   5.6179   5.6395

     occupation numbers 
     1.0000   1.0000   1.0000   1.0000   1.0000   1.0000   1.0000   1.0000
     0.0000   0.0000   0.0000   0.0000   0.0000   0.0000   0.0000   0.0000

          k = 0.0000 0.2887 0.0000     band energies (ev):

   -24.0396 -23.9138 -13.9109 -13.8657 -11.7337 -11.7109 -11.0806 -10.2611
     1.5959   1.8459   2.1243   2.2074   4.0629   5.1158   6.8824   6.9026

     occupation numbers 
     1.0000   1.0000   1.0000   1.0000   1.0000   1.0000   1.0000   1.0000
     0.0000   0.0000   0.0000   0.0000   0.0000   0.0000   0.0000   0.0000

          k = 0.0000 0.3368 0.0000     band energies (ev):

   -23.5380 -23.4166 -14.9462 -14.8931 -12.1059 -12.0819 -10.4991  -9.7094
     0.5321   0.8479   1.9924   2.1128   4.7201   5.8122   8.2174   8.2308

     occupation numbers 
     1.0000   1.0000   1.0000   1.0000   1.0000   1.0000   1.0000   1.0000
     0.0000   0.0000   0.0000   0.0000   0.0000   0.0000   0.0000   0.0000

          k = 0.0000 0.3849 0.0000     band energies (ev):

   -22.9654 -22.8491 -15.9823 -15.9215 -12.4279 -12.4029  -9.8519  -9.1026
    -0.5446  -0.1786   1.8720   2.0138   5.4652   6.5582   9.5538   9.5625

     occupation numbers 
     1.0000   1.0000   1.0000   1.0000   1.0000   1.0000   1.0000   1.0000
     0.0000   0.0000   0.0000   0.0000   0.0000   0.0000   0.0000   0.0000

          k = 0.0000 0.4330 0.0000     band energies (ev):

   -22.3265 -22.2161 -16.9968 -16.9289 -12.6879 -12.6623  -9.1602  -8.4695
    -1.5795  -1.1795   1.7665   1.9235   6.2726   7.4130   8.5199   9.9282

     occupation numbers 
     1.0000   1.0000   1.0000   1.0000   1.0000   1.0000   1.0000   1.0000
     0.0000   0.0000   0.0000   0.0000   0.0000   0.0000   0.0000   0.0000

          k = 0.0000 0.4811 0.0000     band energies (ev):

   -21.6308 -21.5277 -17.9668 -17.8931 -12.8782 -12.8520  -8.4667  -7.8686
    -2.4923  -2.0931   1.6857   1.8563   7.1583   8.3397   9.3757  10.3432

     occupation numbers 
     1.0000   1.0000   1.0000   1.0000   1.0000   1.0000   1.0000   1.0000
     0.0000   0.0000   0.0000   0.0000   0.0000   0.0000   0.0000   0.0000

          k = 0.0000 0.5292 0.0000     band energies (ev):

   -20.9127 -20.8222 -18.8464 -18.7732 -12.9941 -12.9677  -7.8686  -7.4196
    -3.1490  -2.8127   1.6354   1.8117   8.0775   9.2321   9.8447  10.1361

     occupation numbers 
     1.0000   1.0000   1.0000   1.0000   1.0000   1.0000   1.0000   1.0000
     0.0000   0.0000   0.0000   0.0000   0.0000   0.0000   0.0000   0.0000

          k = 0.0000-0.5774 0.0000     band energies (ev):

   -20.4369 -20.3848 -19.3417 -19.3035 -13.0331 -13.0065  -7.5930  -7.2665
    -3.3820  -3.1185   1.6192   1.7968   8.9210   8.9831  12.8871  12.8928

     occupation numbers 
     1.0000   1.0000   1.0000   1.0000   1.0000   1.0000   1.0000   1.0000
     0.0000   0.0000   0.0000   0.0000   0.0000   0.0000   0.0000   0.0000

          k = 0.0417 0.0722 0.0000     band energies (ev):

   -25.3307 -25.1935 -12.6174 -11.7361 -10.3105 -10.2996 -10.1133 -10.1037
     2.1553   2.1955   2.4409   2.5578   2.5814   3.3354   5.0188   5.1338

     occupation numbers 
     1.0000   1.0000   1.0000   1.0000   1.0000   1.0000   1.0000   1.0000
     0.0000   0.0000   0.0000   0.0000   0.0000   0.0000   0.0000   0.0000

          k = 0.0417 0.1203 0.0000     band energies (ev):

   -25.1729 -25.0372 -12.4273 -11.5526 -10.8434 -10.8277 -10.4105 -10.3980
     2.2458   2.3099   2.6374   3.1208   3.1447   3.5550   4.5392   4.6682

     occupation numbers 
     1.0000   1.0000   1.0000   1.0000   1.0000   1.0000   1.0000   1.0000
     0.0000   0.0000   0.0000   0.0000   0.0000   0.0000   0.0000   0.0000

          k = 0.0417 0.1684 0.0000     band energies (ev):

   -24.9370 -24.8033 -12.1441 -11.5750 -11.5517 -11.2796 -10.7943 -10.7778
     2.3377   2.3916   2.9347   3.8296   3.9020   3.9255   3.9469   4.0152

     occupation numbers 
     1.0000   1.0000   1.0000   1.0000   1.0000   1.0000   1.0000   1.0000
     0.0000   0.0000   0.0000   0.0000   0.0000   0.0000   0.0000   0.0000

          k = 0.0417 0.2165 0.0000     band energies (ev):

   -24.6235 -24.4926 -12.4488 -12.4170 -11.7696 -11.2167 -11.1967 -10.9199
     2.3593   2.4144   3.0269   3.2124   3.3331   4.3081   4.9103   4.9404

     occupation numbers 
     1.0000   1.0000   1.0000   1.0000   1.0000   1.0000   1.0000   1.0000
     0.0000   0.0000   0.0000   0.0000   0.0000   0.0000   0.0000   0.0000

          k = 0.0417 0.2646 0.0000     band energies (ev):

   -24.2337 -24.1062 -13.4131 -13.3730 -11.6401 -11.6176 -11.3080 -10.4779
     2.0524   2.2329   2.3711   2.4075   3.8155   4.8519   6.0395   6.0769

     occupation numbers 
     1.0000   1.0000   1.0000   1.0000   1.0000   1.0000   1.0000   1.0000
     0.0000   0.0000   0.0000   0.0000   0.0000   0.0000   0.0000   0.0000

          k = 0.0417 0.3127 0.0000     band energies (ev):

   -23.7691 -23.6457 -14.4266 -14.3783 -12.0377 -12.0133 -10.7647  -9.9605
     1.0282   1.3082   2.2170   2.3241   4.4167   5.4840   7.2454   7.2997

     occupation numbers 
     1.0000   1.0000   1.0000   1.0000   1.0000   1.0000   1.0000   1.0000
     0.0000   0.0000   0.0000   0.0000   0.0000   0.0000   0.0000   0.0000

          k = 0.0417 0.3608 0.0000     band energies (ev):

   -23.2319 -23.1132 -15.4570 -15.4006 -12.3901 -12.3644 -10.1490  -9.3792
    -0.0392   0.2950   2.0986   2.2303   5.1098   6.2219   8.4486   8.5219

     occupation numbers 
     1.0000   1.0000   1.0000   1.0000   1.0000   1.0000   1.0000   1.0000
     0.0000   0.0000   0.0000   0.0000   0.0000   0.0000   0.0000   0.0000

          k = 0.0417 0.4090 0.0000     band energies (ev):

   -22.6259 -22.5126 -16.4791 -16.4151 -12.6846 -12.6580  -9.4762  -8.7544
    -1.0946  -0.7172   1.9855   2.1361   5.8840   7.0071   8.2398   9.5090

     occupation numbers 
     1.0000   1.0000   1.0000   1.0000   1.0000   1.0000   1.0000   1.0000
     0.0000   0.0000   0.0000   0.0000   0.0000   0.0000   0.0000   0.0000

          k = 0.0417 0.4571 0.0000     band energies (ev):

   -21.9573 -21.8504 -17.4705 -17.3997 -12.9121 -12.8847  -8.7759  -8.1266
    -2.0755  -1.6773   1.8917   2.0550   6.7364   7.9117   8.9776  10.0937

     occupation numbers 
     1.0000   1.0000   1.0000   1.0000   1.0000   1.0000   1.0000   1.0000
     0.0000   0.0000   0.0000   0.0000   0.0000   0.0000   0.0000   0.0000

          k = 0.0417 0.5052 0.0000     band energies (ev):

   -21.2431 -21.1452 -18.4022 -18.3275 -13.0665 -13.0389  -8.1114  -7.5805
    -2.8788  -2.5094   1.8256   2.0005   7.6410   8.8187   9.6354  10.0814

     occupation numbers 
     1.0000   1.0000   1.0000   1.0000   1.0000   1.0000   1.0000   1.0000
     0.0000   0.0000   0.0000   0.0000   0.0000   0.0000   0.0000   0.0000

          k = 0.0417 0.5533 0.0000     band energies (ev):

   -20.5690 -20.4949 -19.1691 -19.1081 -13.1443 -13.1164  -7.6329  -7.2670
    -3.3381  -3.0590   1.7921   1.9714   8.5244   9.2341   9.8984  10.2239

     occupation numbers 
     1.0000   1.0000   1.0000   1.0000   1.0000   1.0000   1.0000   1.0000
     0.0000   0.0000   0.0000   0.0000   0.0000   0.0000   0.0000   0.0000

          k = 0.0833 0.1443 0.0000     band energies (ev):

   -24.9763 -24.8422 -12.1911 -11.4078 -11.3929 -11.3246 -10.7867 -10.7754
     2.4401   2.5280   2.9142   3.6138   3.6413   3.8124   3.9791   4.1216

     occupation numbers 
     1.0000   1.0000   1.0000   1.0000   1.0000   1.0000   1.0000   1.0000
     0.0000   0.0000   0.0000   0.0000   0.0000   0.0000   0.0000   0.0000

          k = 0.0833 0.1925 0.0000     band energies (ev):

   -24.7018 -24.5702 -12.1360 -12.1144 -11.8623 -11.2393 -11.2243 -11.0092
     2.6503   2.7153   3.2417   3.3127   3.4145   4.1967   4.2719   4.3014

     occupation numbers 
     1.0000   1.0000   1.0000   1.0000   1.0000   1.0000   1.0000   1.0000
     0.0000   0.0000   0.0000   0.0000   0.0000   0.0000   0.0000   0.0000

          k = 0.0833 0.2406 0.0000     band energies (ev):

   -24.3504 -24.2220 -12.9943 -12.9632 -11.7050 -11.6847 -11.4450 -10.6088
     2.3629   2.5459   2.7696   2.8213   3.6904   4.6753   5.1178   5.1670

     occupation numbers 
     1.0000   1.0000   1.0000   1.0000   1.0000   1.0000   1.0000   1.0000
     0.0000   0.0000   0.0000   0.0000   0.0000   0.0000   0.0000   0.0000

          k = 0.0833 0.2887 0.0000     band energies (ev):

   -23.9237 -23.7990 -13.9399 -13.8990 -12.1458 -12.1213 -10.9431 -10.1295
     1.4059   1.6428   2.7221   2.8129   4.2269   5.2541   6.1173   6.1966

     occupation numbers 
     1.0000   1.0000   1.0000   1.0000   1.0000   1.0000   1.0000   1.0000
     0.0000   0.0000   0.0000   0.0000   0.0000   0.0000   0.0000   0.0000

          k = 0.0833 0.3368 0.0000     band energies (ev):

   -23.4233 -23.3031 -14.9320 -14.8820 -12.5406 -12.5133 -10.3635  -9.5796
     0.3835   0.6706   2.6297   2.7530   4.8646   5.9507   7.2013   7.3206

     occupation numbers 
     1.0000   1.0000   1.0000   1.0000   1.0000   1.0000   1.0000   1.0000
     0.0000   0.0000   0.0000   0.0000   0.0000   0.0000   0.0000   0.0000

          k = 0.0833 0.3849 0.0000     band energies (ev):

   -22.8524 -22.7372 -15.9380 -15.8797 -12.8767 -12.8474  -9.7178  -8.9740
    -0.6566  -0.3210   2.5209   2.6680   5.5950   6.7144   8.2724   8.4643

     occupation numbers 
     1.0000   1.0000   1.0000   1.0000   1.0000   1.0000   1.0000   1.0000
     0.0000   0.0000   0.0000   0.0000   0.0000   0.0000   0.0000   0.0000

          k = 0.0833 0.4330 0.0000     band energies (ev):

   -22.2155 -22.1061 -16.9315 -16.8653 -13.1452 -13.1148  -9.0266  -8.3403
    -1.6629  -1.2918   2.4230   2.5830   6.4022   7.5251   9.1992   9.5921

     occupation numbers 
     1.0000   1.0000   1.0000   1.0000   1.0000   1.0000   1.0000   1.0000
     0.0000   0.0000   0.0000   0.0000   0.0000   0.0000   0.0000   0.0000

          k = 0.0833 0.4811 0.0000     band energies (ev):

   -21.5231 -21.4209 -17.8870 -17.8149 -13.3409 -13.3095  -8.3316  -7.7356
    -2.5597  -2.1878   2.3371   2.5134   7.2624   8.3904   9.2155   9.7444

     occupation numbers 
     1.0000   1.0000   1.0000   1.0000   1.0000   1.0000   1.0000   1.0000
     0.0000   0.0000   0.0000   0.0000   0.0000   0.0000   0.0000   0.0000

          k = 0.0833 0.5292 0.0000     band energies (ev):

   -20.8088 -20.7193 -18.7562 -18.6845 -13.4594 -13.4276  -7.7283  -7.2794
    -3.2090  -2.9022   2.2853   2.4685   8.1205   9.0748   9.6728   9.9490

     occupation numbers 
     1.0000   1.0000   1.0000   1.0000   1.0000   1.0000   1.0000   1.0000
     0.0000   0.0000   0.0000   0.0000   0.0000   0.0000   0.0000   0.0000

          k = 0.0833 0.5774 0.0000     band energies (ev):

   -20.3366 -20.2850 -19.2466 -19.2095 -13.4991 -13.4671  -7.4477  -7.1227
    -3.4376  -3.2138   2.2676   2.4530   8.8323   8.8854   9.9133  10.1080

     occupation numbers 
     1.0000   1.0000   1.0000   1.0000   1.0000   1.0000   1.0000   1.0000
     1.0795   0.0000   0.0000   0.0000   0.0000   0.0000   0.0000   0.0000

          k = 0.1250 0.2165 0.0000     band energies (ev):

   -24.3894 -24.2606 -12.8034 -12.7830 -11.7734 -11.7591 -11.4909 -10.6527
     2.4755   2.6519   3.0471   3.1287   3.7106   4.6120   4.6326   4.6550

     occupation numbers 
     1.0000   1.0000   1.0000   1.0000   1.0000   1.0000   1.0000   1.0000
     0.0000   0.0000   0.0000   0.0000   0.0000   0.0000   0.0000   0.0000

          k = 0.1250 0.2646 0.0000     band energies (ev):

   -24.0012 -23.8758 -13.5880 -13.5605 -12.3084 -12.2894 -11.0325 -10.2144
     1.6154   1.8181   3.3261   3.3849   4.1890   5.1215   5.2078   5.2518

     occupation numbers 
     1.0000   1.0000   1.0000   1.0000   1.0000   1.0000   1.0000   1.0000
     0.0000   0.0000   0.0000   0.0000   0.0000   0.0000   0.0000   0.0000

          k = 0.1250 0.3127 0.0000     band energies (ev):

   -23.5387 -23.4174 -14.4718 -14.4328 -12.7879 -12.7624 -10.4934  -9.7010
     0.6731   0.9112   3.3778   3.4754   4.7375   5.7609   6.0417   6.1413

     occupation numbers 
     1.0000   1.0000   1.0000   1.0000   1.0000   1.0000   1.0000   1.0000
     0.0000   0.0000   0.0000   0.0000   0.0000   0.0000   0.0000   0.0000

          k = 0.1250 0.3608 0.0000     band energies (ev):

   -23.0044 -22.8878 -15.4149 -15.3652 -13.1923 -13.1618  -9.8811  -9.1231
    -0.3134  -0.0314   3.3138   3.4509   5.4071   6.4684   7.0275   7.1984

     occupation numbers 
     1.0000   1.0000   1.0000   1.0000   1.0000   1.0000   1.0000   1.0000
     0.0000   0.0000   0.0000   0.0000   0.0000   0.0000   0.0000   0.0000

          k = 0.1250 0.4090 0.0000     band energies (ev):

   -22.4022 -22.2911 -16.3786 -16.3194 -13.5178 -13.4842  -9.2109  -8.4996
    -1.3027  -0.9790   3.2176   3.3806   6.1579   7.2246   8.0350   8.3074

     occupation numbers 
     1.0000   1.0000   1.0000   1.0000   1.0000   1.0000   1.0000   1.0000
     0.0000   0.0000   0.0000   0.0000   0.0000   0.0000   0.0000   0.0000

          k = 0.1250 0.4571 0.0000     band energies (ev):

   -21.7388 -21.6341 -17.3305 -17.2636 -13.7634 -13.7278  -8.5102  -7.8680
    -2.2375  -1.8916   3.1266   3.3069   6.9675   8.0166   8.9114   9.2902

     occupation numbers 
     1.0000   1.0000   1.0000   1.0000   1.0000   1.0000   1.0000   1.0000
     0.0000   0.0000   0.0000   0.0000   0.0000   0.0000   0.0000   0.0000

          k = 0.1250 0.5052 0.0000     band energies (ev):

   -21.0317 -20.9358 -18.2356 -18.1640 -13.9278 -13.8911  -7.8388  -7.3096
    -3.0183  -2.6989   3.0587   3.2495   7.7723   8.6554   9.2211   9.5858

     occupation numbers 
     1.0000   1.0000   1.0000   1.0000   1.0000   1.0000   1.0000   1.0000
     0.0000   0.0000   0.0000   0.0000   0.0000   0.0000   0.0000   0.0000

          k = 0.1250 0.5533 0.0000     band energies (ev):

   -20.3660 -20.2935 -18.9853 -18.9268 -14.0102 -13.9731  -7.3466  -6.9818
    -3.4656  -3.2550   3.0229   3.2189   8.4597   8.8146   9.5496   9.9137

     occupation numbers 
     1.0000   1.0000   1.0000   1.0000   1.0000   1.0000   1.0000   1.0000
     1.0000   0.0000   0.0000   0.0000   0.0000   0.0000   0.0000   0.0000

          k = 0.1667 0.2887 0.0000     band energies (ev):

   -23.5772 -23.4555 -14.2532 -14.2277 -12.9305 -12.9125 -10.5365  -9.7416
     0.7780   0.9934   3.9205   3.9672   4.7871   5.3353   5.4021   5.7421

     occupation numbers 
     1.0000   1.0000   1.0000   1.0000   1.0000   1.0000   1.0000   1.0000
     0.0000   0.0000   0.0000   0.0000   0.0000   0.0000   0.0000   0.0000

          k = 0.1667 0.3368 0.0000     band energies (ev):

   -23.0807 -22.9635 -15.0214 -14.9876 -13.4827 -13.4588  -9.9633  -9.1984
    -0.1192   0.1193   4.2086   4.2996   5.3573   5.8714   6.0430   6.3786

     occupation numbers 
     1.0000   1.0000   1.0000   1.0000   1.0000   1.0000   1.0000   1.0000
     0.0000   0.0000   0.0000   0.0000   0.0000   0.0000   0.0000   0.0000

          k = 0.1667 0.3849 0.0000     band energies (ev):

   -22.5148 -22.4027 -15.8778 -15.8311 -13.9226 -13.8908  -9.3234  -8.5978
    -1.0477  -0.7767   4.2010   4.3563   6.0119   6.7307   7.0425   7.1471

     occupation numbers 
     1.0000   1.0000   1.0000   1.0000   1.0000   1.0000   1.0000   1.0000
     0.0000   0.0000   0.0000   0.0000   0.0000   0.0000   0.0000   0.0000

          k = 0.1667 0.4330 0.0000     band energies (ev):

   -21.8849 -21.7787 -16.7767 -16.7188 -14.2510 -14.2138  -8.6350  -7.9638
    -1.9678  -1.6655   4.1191   4.3068   6.7588   7.6052   8.0357   8.1587

     occupation numbers 
     1.0000   1.0000   1.0000   1.0000   1.0000   1.0000   1.0000   1.0000
     0.0000   0.0000   0.0000   0.0000   0.0000   0.0000   0.0000   0.0000

          k = 0.1667 0.4811 0.0000     band energies (ev):

   -21.2015 -21.1024 -17.6719 -17.6058 -14.4791 -14.4387  -7.9354  -7.3471
    -2.8127  -2.5046   4.0376   4.2436   7.4974   8.1955   8.8302   9.1376

     occupation numbers 
     1.0000   1.0000   1.0000   1.0000   1.0000   1.0000   1.0000   1.0000
     0.0000   0.0000   0.0000   0.0000   0.0000   0.0000   0.0000   0.0000

          k = 0.1667 0.5292 0.0000     band energies (ev):

   -20.4990 -20.4124 -18.5030 -18.4360 -14.6138 -14.5718  -7.3139  -6.8646
    -3.4438  -3.2053   3.9828   4.1985   8.0940   8.4476   9.0988   9.5611

     occupation numbers 
     1.0000   1.0000   1.0000   1.0000   1.0000   1.0000   1.0000   1.0000
     1.0000   0.0000   0.0000   0.0000   0.0000   0.0000   0.0000   0.0000

          k = 0.1667 0.5774 0.0000     band energies (ev):

   -20.0358 -19.9858 -18.9767 -18.9439 -14.6583 -14.6158  -7.0142  -6.6936
    -3.6498  -3.5472   3.9638   4.1827   8.4044   8.4089   9.2921   9.7694

     occupation numbers 
     1.0000   1.0000   1.0000   1.0000   1.0000   1.0000   1.0000   1.0000
     1.0000   1.0000   0.0000   0.0000   0.0000   0.0000   0.0000   0.0000

          k = 0.2083 0.3608 0.0000     band energies (ev):

   -22.5525 -22.4400 -15.6310 -15.6005 -14.1300 -14.1080  -9.3611  -8.6309
    -0.9542  -0.7076   5.0408   5.0447   5.9281   6.0403   6.1197   7.0459

     occupation numbers 
     1.0000   1.0000   1.0000   1.0000   1.0000   1.0000   1.0000   1.0000
     0.0000   0.0000   0.0000   0.0000   0.0000   0.0000   0.0000   0.0000

          k = 0.2083 0.4090 0.0000     band energies (ev):

   -21.9585 -21.8515 -16.3452 -16.3053 -14.6467 -14.6179  -8.6992  -8.0139
    -1.8111  -1.5456   5.2168   5.3952   6.5011   6.6274   7.0353   7.7327

     occupation numbers 
     1.0000   1.0000   1.0000   1.0000   1.0000   1.0000   1.0000   1.0000
     0.0000   0.0000   0.0000   0.0000   0.0000   0.0000   0.0000   0.0000

          k = 0.2083 0.4571 0.0000     band energies (ev):

   -21.3063 -21.2057 -17.1428 -17.0892 -15.0067 -14.9689  -7.9999  -7.3768
    -2.6520  -2.3673   5.1472   5.3788   7.2733   7.5227   8.1307   8.3277

     occupation numbers 
     1.0000   1.0000   1.0000   1.0000   1.0000   1.0000   1.0000   1.0000
     0.0000   0.0000   0.0000   0.0000   0.0000   0.0000   0.0000   0.0000

          k = 0.2083 0.5052 0.0000     band energies (ev):

   -20.6137 -20.5218 -17.9578 -17.8953 -15.2296 -15.1863  -7.3135  -6.7889
    -3.3936  -3.1261   5.0707   5.3189   7.7587   7.9726   8.6663   8.9647

     occupation numbers 
     1.0000   1.0000   1.0000   1.0000   1.0000   1.0000   1.0000   1.0000
     0.0000   0.0000   0.0000   0.0000   0.0000   0.0000   0.0000   0.0000

          k = 0.2083 0.5533 0.0000     band energies (ev):

   -19.9628 -19.8932 -18.6611 -18.6092 -15.3361 -15.2905  -6.7830  -6.4189
    -3.8332  -3.7026   5.0290   5.2852   8.0037   8.0687   8.9244   9.4106

     occupation numbers 
     1.0000   1.0000   1.0000   1.0000   1.0000   1.0000   1.0000   1.0000
     1.0000   1.0000   0.0000   0.0000   0.0000   0.0000   0.0000   0.0000

          k = 0.2500 0.4330 0.0000     band energies (ev):

   -21.3416 -21.2407 -16.8732 -16.8378 -15.2652 -15.2403  -8.0225  -7.3880
    -2.5907  -2.3190   6.2344   6.2799   6.5445   6.7011   7.6242   8.1835

     occupation numbers 
     1.0000   1.0000   1.0000   1.0000   1.0000   1.0000   1.0000   1.0000
     0.0000   0.0000   0.0000   0.0000   0.0000   0.0000   0.0000   0.0000

          k = 0.2500 0.4811 0.0000     band energies (ev):

   -20.6756 -20.5819 -17.5108 -17.4657 -15.7001 -15.6681  -7.3196  -6.7540
    -3.3528  -3.0718   6.2002   6.4915   7.2248   7.5339   8.3607   8.4350

     occupation numbers 
     1.0000   1.0000   1.0000   1.0000   1.0000   1.0000   1.0000   1.0000
     0.0000   0.0000   0.0000   0.0000   0.0000   0.0000   0.0000   0.0000

          k = 0.2500 0.5292 0.0000     band energies (ev):

   -19.9935 -19.9116 -18.2035 -18.1499 -15.9407 -15.8999  -6.6584  -6.2066
    -3.9915  -3.7486   6.1182   6.4220   7.6719   7.7312   8.4976   8.8025

     occupation numbers 
     1.0000   1.0000   1.0000   1.0000   1.0000   1.0000   1.0000   1.0000
     1.0000   1.0000   0.0000   0.0000   0.0000   0.0000   0.0000   0.0000

          k = 0.2500 0.5774 0.0000     band energies (ev):

   -19.5357 -19.4883 -18.6359 -18.6188 -16.0160 -15.9721  -6.3008  -5.9883
    -4.2214  -4.1303   6.0911   6.4007   7.7309   7.7456   8.6778   9.0768

     occupation numbers 
     1.0000   1.0000   1.0000   1.0000   1.0000   1.0000   1.0000   1.0000
     1.0000   1.0000   0.0000   0.0000   0.0000   0.0000   0.0000   0.0000

          k = 0.2917 0.5052 0.0000     band energies (ev):

   -20.0115 -19.9268 -17.9476 -17.9077 -16.2239 -16.2002  -6.6199  -6.1256
    -4.0507  -3.7585   7.0153   7.0365   7.3250   7.6400   8.2094   8.2255

     occupation numbers 
     1.0000   1.0000   1.0000   1.0000   1.0000   1.0000   1.0000   1.0000
     1.0000   1.0000   0.0000   0.0000   0.0000   0.0000   0.0000   0.0000

          k = 0.2917 0.5533 0.0000     band energies (ev):

   -19.3775 -19.3111 -18.4598 -18.4206 -16.4959 -16.4689  -5.9893  -5.6163
    -4.6155  -4.3582   6.9640   7.1573   7.5407   7.8205   8.3779   8.6099

     occupation numbers 
     1.0000   1.0000   1.0000   1.0000   1.0000   1.0000   1.0000   1.0000
     1.0000   1.0000   0.0000   0.0000   0.0000   0.0000   0.0000   0.0000

          k = 0.3333 0.5774 0.0000     band energies (ev):

   -18.8598 -18.8155 -18.8154 -18.7716 -16.7102 -16.7097  -5.4430  -5.1470
    -5.1466  -4.8313   7.1982   7.2000   7.6324   8.2592   8.3905   8.3909

     occupation numbers 
     1.0000   1.0000   1.0000   1.0000   1.0000   1.0000   1.0000   1.0000
     1.0000   1.0000   0.0000   0.0000   0.0000   0.0000   0.0000   0.0000

          k =-0.0417 0.0241 0.0000     band energies (ev):

   -25.4096 -25.2718 -12.7129 -11.8282 -10.0251 -10.0141  -9.9547  -9.9442
     2.1018   2.1212   2.2546   2.2565   2.2801   3.2205   5.2678   5.3762

     occupation numbers 
     1.0000   1.0000   1.0000   1.0000   1.0000   1.0000   1.0000   1.0000
     0.0000   0.0000   0.0000   0.0000   0.0000   0.0000   0.0000   0.0000

          k =-0.0833 0.0481 0.0000     band energies (ev):

   -25.2912 -25.1544 -12.5699 -11.6901 -10.4600 -10.4444 -10.1813 -10.1678
     2.1421   2.1949   2.4506   2.7390   2.7625   3.3867   4.8952   5.0155

     occupation numbers 
     1.0000   1.0000   1.0000   1.0000   1.0000   1.0000   1.0000   1.0000
     0.0000   0.0000   0.0000   0.0000   0.0000   0.0000   0.0000   0.0000

          k =-0.1250 0.0722 0.0000     band energies (ev):

   -25.0942 -24.9591 -12.3329 -11.4615 -11.1255 -11.1035 -10.5152 -10.4987
     2.2113   2.2604   2.7174   3.4958   3.5181   3.6557   4.3069   4.4439

     occupation numbers 
     1.0000   1.0000   1.0000   1.0000   1.0000   1.0000   1.0000   1.0000
[...]
     0.0000   0.0000   0.0000   0.0000   0.0000   0.0000   0.0000   0.0000

          k = 0.3333-0.0000 0.0000 (  3039 PWs)   bands (ev):

   -18.1253 -17.9467  -8.2865  -8.2480  -6.9409  -6.9130  -6.3375  -5.2685
     5.5940   5.6873   5.9545   6.0101   6.7272   7.8432   8.2816   9.3992

     occupation numbers 
     1.0000   1.0000   1.0000   1.0000   1.0000   1.0000   1.0000   1.0000
     0.0000   0.0000   0.0000   0.0000   0.0000   0.0000   0.0000   0.0000

          k =-0.2083 0.3127 0.0000 (  3057 PWs)   bands (ev):

   -17.6062 -17.4338  -9.1051  -9.0532  -7.5368  -7.4991  -5.7325  -4.6983
     4.7129   5.0532   6.3105   6.6877   7.4603   8.5579   8.9335   9.6300

     occupation numbers 
     1.0000   1.0000   1.0000   1.0000   1.0000   1.0000   1.0000   1.0000
     0.0000   0.0000   0.0000   0.0000   0.0000   0.0000   0.0000   0.0000

          k = 0.3750 0.0241 0.0000 (  3057 PWs)   bands (ev):

   -17.6062 -17.4338  -9.1046  -9.0526  -7.5374  -7.4997  -5.7325  -4.6984
     4.7133   5.0536   6.3105   6.6877   7.4603   8.5579   8.9333   9.6290

     occupation numbers 
     1.0000   1.0000   1.0000   1.0000   1.0000   1.0000   1.0000   1.0000
     0.0000   0.0000   0.0000   0.0000   0.0000   0.0000   0.0000   0.0000

          k =-0.2500 0.3368 0.0000 (  3045 PWs)   bands (ev):

   -17.0139 -16.8485 -10.0232  -9.9511  -8.0029  -7.9525  -5.0535  -4.0660
     3.7034   4.0971   7.1271   7.4996   8.3036   9.3463   9.5333   9.6435

     occupation numbers 
     1.0000   1.0000   1.0000   1.0000   1.0000   1.0000   1.0000   1.0000
     0.0000   0.0000   0.0000   0.0000   0.0000   0.0000   0.0000   0.0000

          k = 0.4167 0.0481 0.0000 (  3045 PWs)   bands (ev):

   -17.0138 -16.8484 -10.0229  -9.9508  -8.0033  -7.9529  -5.0536  -4.0661
     3.7038   4.0974   7.1271   7.4996   8.3036   9.3461   9.5330   9.6432

     occupation numbers 
     1.0000   1.0000   1.0000   1.0000   1.0000   1.0000   1.0000   1.0000
     0.0000   0.0000   0.0000   0.0000   0.0000   0.0000   0.0000   0.0000

          k =-0.2917 0.3608 0.0000 (  3042 PWs)   bands (ev):

   -16.3529 -16.1957 -10.9851 -10.8962  -8.3461  -8.2875  -4.3173  -3.3961
     2.6995   3.1459   8.0432   8.4000   9.2452   9.4405   9.7114  10.3092

     occupation numbers 
     1.0000   1.0000   1.0000   1.0000   1.0000   1.0000   1.0000   1.0000
     0.0000   0.0000   0.0000   0.0000   0.0000   0.0000   0.0000   0.0000

          k = 0.4583 0.0722 0.0000 (  3042 PWs)   bands (ev):

   -16.3529 -16.1957 -10.9849 -10.8960  -8.3464  -8.2878  -4.3175  -3.3962
     2.6998   3.1462   8.0432   8.4000   9.2452   9.4403   9.7111  10.3092

     occupation numbers 
     1.0000   1.0000   1.0000   1.0000   1.0000   1.0000   1.0000   1.0000
     0.0000   0.0000   0.0000   0.0000   0.0000   0.0000   0.0000   0.0000

          k =-0.3333 0.3849 0.0000 (  3041 PWs)   bands (ev):

   -15.6329 -15.4857 -11.9404 -11.8395  -8.5829  -8.5197  -3.5587  -2.7430
     1.7774   2.2404   9.0360   9.2473   9.4738   9.6354  10.3274  11.1138

     occupation numbers 
     1.0000   1.0000   1.0000   1.0000   1.0000   1.0000   1.0000   1.0000
     0.0000   0.0000   0.0000   0.0000   0.0000   0.0000   0.0000   0.0000

          k = 0.5000 0.0962 0.0000 (  3041 PWs)   bands (ev):

   -15.6329 -15.4857 -11.9403 -11.8394  -8.5830  -8.5199  -3.5588  -2.7432
     1.7776   2.2407   9.0359   9.2472   9.4738   9.6353  10.3273  11.1131

     occupation numbers 
     1.0000   1.0000   1.0000   1.0000   1.0000   1.0000   1.0000   1.0000
     0.0000   0.0000   0.0000   0.0000   0.0000   0.0000   0.0000   0.0000

          k =-0.3750 0.4090 0.0000 (  3024 PWs)   bands (ev):

   -14.8850 -14.7548 -12.8294 -12.7261  -8.7223  -8.6569  -2.8656  -2.2398
     1.0949   1.4670   9.2318   9.5618  10.1704  10.3781  11.2804  11.6055

     occupation numbers 
     1.0000   1.0000   1.0000   1.0000   1.0000   1.0000   1.0000   1.0000
     0.0000   0.0000   0.0000   0.0000   0.0000   0.0000   0.0000   0.0000

          k = 0.5417 0.1203 0.0000 (  3024 PWs)   bands (ev):

   -14.8850 -14.7548 -12.8294 -12.7261  -8.7224  -8.6569  -2.8657  -2.2399
     1.0950   1.4671   9.2317   9.5617  10.1705  10.3781  11.2803  11.6054

     occupation numbers 
     1.0000   1.0000   1.0000   1.0000   1.0000   1.0000   1.0000   1.0000
     0.0000   0.0000   0.0000   0.0000   0.0000   0.0000   0.0000   0.0000

          k =-0.4167 0.4330 0.0000 (  3008 PWs)   bands (ev):

   -14.3698 -14.2954 -13.3413 -13.2902  -8.7684  -8.7023  -2.5139  -2.0793
     0.8856   1.0758   9.2126   9.5489  10.9942  11.2524  11.2822  11.3705

     occupation numbers 
     1.0000   1.0000   1.0000   1.0000   1.0000   1.0000   1.0000   1.0000
     0.0000   0.0000   0.0000   0.0000   0.0000   0.0000   0.0000   0.0000

          k = 0.4167 0.0000 0.0000 (  3037 PWs)   bands (ev):

   -17.0533 -16.8874  -9.7391  -9.6932  -8.2441  -8.2101  -5.0948  -4.1017
     3.8319   4.1774   7.0731   7.4393   8.2484   9.3165   9.6066  10.4057

     occupation numbers 
     1.0000   1.0000   1.0000   1.0000   1.0000   1.0000   1.0000   1.0000
     0.0000   0.0000   0.0000   0.0000   0.0000   0.0000   0.0000   0.0000

          k =-0.2500 0.3849 0.0000 (  3045 PWs)   bands (ev):

   -16.4303 -16.2720 -10.5002 -10.4388  -8.7984  -8.7526  -4.3897  -3.4511
     2.9165   3.2906   7.9369   8.2791   9.1445  10.1434  10.2424  10.5950

     occupation numbers 
     1.0000   1.0000   1.0000   1.0000   1.0000   1.0000   1.0000   1.0000
     0.0000   0.0000   0.0000   0.0000   0.0000   0.0000   0.0000   0.0000

          k = 0.4583 0.0241 0.0000 (  3045 PWs)   bands (ev):

   -16.4303 -16.2720 -10.4997 -10.4383  -8.7989  -8.7531  -4.3898  -3.4513
     2.9169   3.2910   7.9369   8.2790   9.1444  10.1433  10.2420  10.5944

     occupation numbers 
     1.0000   1.0000   1.0000   1.0000   1.0000   1.0000   1.0000   1.0000
     0.0000   0.0000   0.0000   0.0000   0.0000   0.0000   0.0000   0.0000

          k =-0.2917 0.4090 0.0000 (  3026 PWs)   bands (ev):

   -15.7441 -15.5948 -11.3572 -11.2745  -9.1766  -9.1164  -3.6387  -2.7780
     2.0109   2.4184   8.8942   9.1717  10.1276  10.4448  10.6177  11.0752

     occupation numbers 
     1.0000   1.0000   1.0000   1.0000   1.0000   1.0000   1.0000   1.0000
     0.0000   0.0000   0.0000   0.0000   0.0000   0.0000   0.0000   0.0000

          k = 0.5000 0.0481 0.0000 (  3026 PWs)   bands (ev):

   -15.7440 -15.5948 -11.3569 -11.2742  -9.1769  -9.1167  -3.6388  -2.7782
     2.0112   2.4187   8.8942   9.1716  10.1275  10.4446  10.6172  11.0724

     occupation numbers 
     1.0000   1.0000   1.0000   1.0000   1.0000   1.0000   1.0000   1.0000
     0.0000   0.0000   0.0000   0.0000   0.0000   0.0000   0.0000   0.0000

          k =-0.3333 0.4330 0.0000 (  3018 PWs)   bands (ev):

   -15.0109 -14.8737 -12.2323 -12.1361  -9.4071  -9.3388  -2.8898  -2.1589
     1.2113   1.6030   9.9136   9.9805  10.4273  10.6004  11.0832  11.3521

     occupation numbers 
     1.0000   1.0000   1.0000   1.0000   1.0000   1.0000   1.0000   1.0000
     0.0000   0.0000   0.0000   0.0000   0.0000   0.0000   0.0000   0.0000

          k = 0.5417 0.0722 0.0000 (  3018 PWs)   bands (ev):

   -15.0109 -14.8737 -12.2322 -12.1359  -9.4073  -9.3389  -2.8900  -2.1591
     1.2116   1.6033   9.9134   9.9804  10.4274  10.6001  11.0832  11.3520

     occupation numbers 
     1.0000   1.0000   1.0000   1.0000   1.0000   1.0000   1.0000   1.0000
     0.0000   0.0000   0.0000   0.0000   0.0000   0.0000   0.0000   0.0000

          k =-0.3750 0.4571 0.0000 (  3019 PWs)   bands (ev):

   -14.3075 -14.2017 -12.9919 -12.9098  -9.5168  -9.4450  -2.2899  -1.7879
     0.7574   0.9588  10.1769  10.5527  10.7333  11.0372  11.1079  12.0731

     occupation numbers 
     1.0000   1.0000   1.0000   1.0000   1.0000   1.0000   1.0000   1.0000
     0.0000   0.0000   0.0000   0.0000   0.0000   0.0000   0.0000   0.0000

          k = 0.5833 0.0962 0.0000 (  3019 PWs)   bands (ev):

   -14.3075 -14.2017 -12.9918 -12.9098  -9.5168  -9.4450  -2.2900  -1.7879
     0.7575   0.9589  10.1768  10.5527  10.7333  11.0371  11.1080  12.0729

     occupation numbers 
     1.0000   1.0000   1.0000   1.0000   1.0000   1.0000   1.0000   1.0000
     0.0000   0.0000   0.0000   0.0000   0.0000   0.0000   0.0000   0.0000

          k = 0.5000 0.0000 0.0000 (  3033 PWs)   bands (ev):

   -15.7815 -15.6315 -11.0453 -10.9923  -9.4727  -9.4339  -3.6666  -2.7915
     2.1038   2.4805   8.8413   9.1052  10.0773  10.6461  10.9196  11.5223

     occupation numbers 
     1.0000   1.0000   1.0000   1.0000   1.0000   1.0000   1.0000   1.0000
     0.0000   0.0000   0.0000   0.0000   0.0000   0.0000   0.0000   0.0000

          k =-0.2917 0.4571 0.0000 (  3019 PWs)   bands (ev):

   -15.0781 -14.9384 -11.7266 -11.6574  -9.9389  -9.8872  -2.9093  -2.1234
     1.2983   1.6889   9.8246   9.8473  10.5909  11.2029  11.3435  11.6879

     occupation numbers 
     1.0000   1.0000   1.0000   1.0000   1.0000   1.0000   1.0000   1.0000
     0.0000   0.0000   0.0000   0.0000   0.0000   0.0000   0.0000   0.0000

          k = 0.5417 0.0241 0.0000 (  3019 PWs)   bands (ev):

   -15.0781 -14.9384 -11.7262 -11.6570  -9.9393  -9.8876  -2.9096  -2.1236
     1.2988   1.6894   9.8245   9.8472  10.5906  11.2029  11.3435  11.6880

     occupation numbers 
     1.0000   1.0000   1.0000   1.0000   1.0000   1.0000   1.0000   1.0000
     0.0000   0.0000   0.0000   0.0000   0.0000   0.0000   0.0000   0.0000

          k =-0.3333 0.4811 0.0000 (  3013 PWs)   bands (ev):

   -14.3507 -14.2275 -12.4760 -12.3923 -10.1908 -10.1250  -2.1858  -1.5554
     0.6271   0.9656  10.2213  10.5131  10.8488  11.4481  11.9420  12.2409

     occupation numbers 
     1.0000   1.0000   1.0000   1.0000   1.0000   1.0000   1.0000   1.0000
     0.0000   0.0000   0.0000   0.0000   0.0000   0.0000   0.0000   0.0000

          k = 0.5833 0.0481 0.0000 (  3013 PWs)   bands (ev):

   -14.3508 -14.2275 -12.4758 -12.3921 -10.1910 -10.1252  -2.1860  -1.5556
     0.6273   0.9659  10.2213  10.5129  10.8488  11.4481  11.9422  12.2408

     occupation numbers 
     1.0000   1.0000   1.0000   1.0000   1.0000   1.0000   1.0000   1.0000
     0.0000   0.0000   0.0000   0.0000   0.0000   0.0000   0.0000   0.0000

          k =-0.3750 0.5052 0.0000 (  3008 PWs)   bands (ev):

   -13.8443 -13.7734 -12.9444 -12.9144 -10.2685 -10.1981  -1.7793  -1.3538
     0.4283   0.5218  10.2849  10.4678  11.4001  11.8171  11.8624  12.0854

     occupation numbers 
     1.0000   1.0000   1.0000   1.0000   1.0000   1.0000   1.0000   1.0000
     0.0000   0.0000   0.0000   0.0000   0.0000   0.0000   0.0000   0.0000

          k = 0.5833 0.0000 0.0000 (  3011 PWs)   bands (ev):

   -14.3727 -14.2457 -12.1739 -12.1144 -10.5139 -10.4758  -2.1568  -1.4666
     0.5776   0.9786  10.1278  10.3973  10.8015  11.9810  12.1362  12.3353

     occupation numbers 
     1.0000   1.0000   1.0000   1.0000   1.0000   1.0000   1.0000   1.0000
     0.0000   0.0000   0.0000   0.0000   0.0000   0.0000   0.0000   0.0000

          k =-0.3333 0.5292 0.0000 (  3000 PWs)   bands (ev):

   -13.6900 -13.5892 -12.7223 -12.6623 -10.8101 -10.7653  -1.4728  -0.9551
     0.0045   0.3503  10.1313  10.2382  11.7012  12.1703  12.4273  12.8050

     occupation numbers 
     1.0000   1.0000   1.0000   1.0000   1.0000   1.0000   1.0000   1.0000
     0.0000   0.0000   0.0000   0.0000   0.0000   0.0000   0.0000   0.0000

          k = 0.6250 0.0241 0.0000 (  3000 PWs)   bands (ev):

   -13.6901 -13.5893 -12.7221 -12.6620 -10.8103 -10.7655  -1.4730  -0.9553
     0.0048   0.3506  10.1313  10.2381  11.7011  12.1707  12.4271  12.8049

     occupation numbers 
     1.0000   1.0000   1.0000   1.0000   1.0000   1.0000   1.0000   1.0000
     0.0000   0.0000   0.0000   0.0000   0.0000   0.0000   0.0000   0.0000

     the Fermi energy is    -0.5192 ev

!    total energy              =     -45.57750261 Ry
     Harris-Foulkes estimate   =     -45.57750260 Ry
     estimated scf accuracy    <          3.2E-11 Ry

     The total energy is the sum of the following terms:

     one-electron contribution =    -551.04961986 Ry
     hartree contribution      =     278.99518533 Ry
     xc contribution           =     -14.03499298 Ry
     ewald contribution        =     240.51192491 Ry
     smearing contrib. (-TS)   =      -0.00000000 Ry

     total magnetization       =     0.01 Bohr mag/cell
     absolute magnetization    =     0.02 Bohr mag/cell

     convergence has been achieved in  13 iterations

     Forces acting on atoms (Ry/au):

     atom    1 type  1   force =     0.00000000   -0.00010961   -0.00387767
     atom    2 type  1   force =     0.00000000    0.00011245   -0.00295306
     atom    3 type  1   force =     0.00000000    0.00010864    0.00387785
     atom    4 type  1   force =     0.00000000   -0.00011149    0.00295288
     The non-local contrib.  to forces
     atom    1 type  1   force =     0.00000000   -0.00003817   -0.00224262
     atom    2 type  1   force =     0.00000000    0.00003802   -0.00117018
     atom    3 type  1   force =     0.00000000    0.00003415    0.00222298
     atom    4 type  1   force =     0.00000000   -0.00004010    0.00115010
     The ionic contribution  to forces
     atom    1 type  1   force =    -0.00000000   -0.00037385  -14.45429315
     atom    2 type  1   force =     0.00000000    0.00037309  -14.46150519
     atom    3 type  1   force =     0.00000000    0.00037385   14.45429315
     atom    4 type  1   force =     0.00000000   -0.00037309   14.46150519
     The local contribution  to forces
     atom    1 type  1   force =     0.00000000    0.00030095   14.45264957
     atom    2 type  1   force =    -0.00000000   -0.00030018   14.45971380
     atom    3 type  1   force =    -0.00000000   -0.00030084  -14.45265114
     atom    4 type  1   force =     0.00000000    0.00030024  -14.45971526
     The core correction contribution to forces
     atom    1 type  1   force =     0.00000000    0.00000000    0.00000000
     atom    2 type  1   force =     0.00000000    0.00000000    0.00000000
     atom    3 type  1   force =     0.00000000    0.00000000    0.00000000
     atom    4 type  1   force =     0.00000000    0.00000000    0.00000000
     The Hubbard contrib.    to forces
     atom    1 type  1   force =     0.00000000    0.00000000    0.00000000
     atom    2 type  1   force =     0.00000000    0.00000000    0.00000000
     atom    3 type  1   force =     0.00000000    0.00000000    0.00000000
     atom    4 type  1   force =     0.00000000    0.00000000    0.00000000
     The SCF correction term to forces
     atom    1 type  1   force =    -0.00000000   -0.00000003   -0.00000169
     atom    2 type  1   force =    -0.00000000    0.00000004   -0.00000172
     atom    3 type  1   force =     0.00000000   -0.00000000    0.00000263
     atom    4 type  1   force =     0.00000000   -0.00000002    0.00000261

     Total force =     0.006897     Total SCF correction =     0.000004


     entering subroutine stress ...

          total   stress  (Ry/bohr**3)                   (kbar)     P=   -4.08
  -0.00006795   0.00000000   0.00000000        -10.00      0.00      0.00
   0.00000000  -0.00006771   0.00000000          0.00     -9.96      0.00
   0.00000000   0.00000000   0.00005250          0.00      0.00      7.72

     kinetic stress (kbar)   3525.79      0.00      0.00
                                0.00   3525.68      0.00
                                0.00      0.00   4090.38

     local   stress (kbar)-117710.76      0.00     -0.00
                                0.00-117711.44     -0.00
                               -0.00     -0.00 120037.34

     nonloc. stress (kbar)   -152.38      0.00      0.00
                                0.00   -152.37     -0.00
                                0.00     -0.00   -151.61

     hartree stress (kbar)  57332.37     -0.00      0.00
                               -0.00  57332.46      0.00
                                0.00      0.00 -56989.79

     exc-cor stress (kbar)   -891.70      0.00      0.00
                                0.00   -891.70      0.00
                                0.00      0.00   -924.12

     corecor stress (kbar)      0.00      0.00      0.00
                                0.00      0.00      0.00
                                0.00      0.00      0.00

     ewald   stress (kbar)  57886.69      0.00      0.00
                                0.00  57887.41      0.00
                                0.00      0.00 -66054.47

     hubbard stress (kbar)      0.00      0.00      0.00
                                0.00      0.00      0.00
                                0.00      0.00      0.00

     london  stress (kbar)      0.00      0.00      0.00
                                0.00      0.00      0.00
                                0.00      0.00      0.00

     XDM     stress (kbar)      0.00      0.00      0.00
                                0.00      0.00      0.00
                                0.00      0.00      0.00

     dft-nl  stress (kbar)      0.00      0.00      0.00
                                0.00      0.00      0.00
                                0.00      0.00      0.00



     Writing output data file gra.dos1.save

     init_run     :     17.16s CPU     17.38s WALL (       1 calls)
     electrons    :    610.78s CPU    613.38s WALL (       1 calls)
     forces       :      7.52s CPU      7.54s WALL (       1 calls)
     stress       :     16.88s CPU     16.90s WALL (       1 calls)

     Called by init_run:
     wfcinit      :     15.12s CPU     15.30s WALL (       1 calls)
     potinit      :      0.84s CPU      0.86s WALL (       1 calls)

     Called by electrons:
     c_bands      :    524.44s CPU    526.64s WALL (      13 calls)
     sum_band     :     72.86s CPU     73.22s WALL (      13 calls)
     v_of_rho     :      8.77s CPU      8.80s WALL (      14 calls)
     v_h          :      0.17s CPU      0.17s WALL (      14 calls)
     v_xc         :      8.60s CPU      8.63s WALL (      14 calls)
     newd         :      4.46s CPU      4.46s WALL (      14 calls)
     mix_rho      :      0.65s CPU      0.66s WALL (      13 calls)

     Called by c_bands:
     init_us_2    :      9.76s CPU      9.81s WALL (    9106 calls)
     cegterg      :    508.25s CPU    510.31s WALL (    4082 calls)

     Called by sum_band:
     sum_band:bec :      0.08s CPU      0.08s WALL (    4082 calls)
     addusdens    :      4.83s CPU      4.83s WALL (      13 calls)

     Called by *egterg:
     h_psi        :    303.26s CPU    305.18s WALL (   17022 calls)
     s_psi        :     44.71s CPU     44.77s WALL (   17022 calls)
     g_psi        :      2.18s CPU      2.18s WALL (   12626 calls)
     cdiaghg      :     14.93s CPU     14.98s WALL (   16708 calls)
     cegterg:over :     63.11s CPU     63.17s WALL (   12626 calls)
     cegterg:upda :     40.29s CPU     40.37s WALL (   12626 calls)
     cegterg:last :     24.27s CPU     24.31s WALL (    4190 calls)

     Called by h_psi:
     h_psi:vloc   :    208.59s CPU    210.18s WALL (   17022 calls)
     h_psi:vnl    :     93.07s CPU     93.40s WALL (   17022 calls)
     add_vuspsi   :     44.70s CPU     44.78s WALL (   17022 calls)

     General routines
     calbec       :     68.84s CPU     69.18s WALL (   21732 calls)
     fft          :      4.23s CPU      4.25s WALL (     437 calls)
     ffts         :      0.04s CPU      0.04s WALL (      54 calls)
     fftw         :    177.98s CPU    179.32s WALL (  409390 calls)
     interpolate  :      0.62s CPU      0.62s WALL (      54 calls)

     Parallel routines
     fft_scatter  :     31.07s CPU     31.30s WALL (  409881 calls)

     PWSCF        : 10m53.75s CPU    10m56.90s WALL


   This run was terminated on:  19:58:19  30Apr2020            

=------------------------------------------------------------------------------=
   JOB DONE.
=------------------------------------------------------------------------------=
