
     Program BANDS v.5.1 starts on  7Apr2020 at 20: 5:49 

     This program is part of the open-source Quantum ESPRESSO suite
     for quantum simulation of materials; please cite
         "P. Giannozzi et al., J. Phys.:Condens. Matter 21 395502 (2009);
          URL http://www.quantum-espresso.org", 
     in publications or presentations arising from this work. More details at
     http://www.quantum-espresso.org/quote

     Parallel version (MPI), running on     1 processors

   Info: using nr1, nr2, nr3 values from input

   Info: using nr1s, nr2s, nr3s values from input

     IMPORTANT: XC functional enforced from input :
     Exchange-correlation      = PBE ( 1  4  3  4 0)
     Any further DFT definition will be discarded
     Please, verify this is what you really want

               file C.pbe-rrkjus.UPF: wavefunction(s)  2S 2P renormalized

     G-vector sticks info
     --------------------
     sticks:   dense  smooth     PW     G-vecs:    dense   smooth      PW
     Sum         595     241     85                96043    24369    4587


     negative rho (up, down):  1.641E-06 0.000E+00

 **************************************************************************

                    xk=(  -0.33333,   0.57735,   0.00000  )

     point group C_1 (1)    
     there are  1 classes
     the character table:

       E    
A      1.00

     the symmetry operations in each class:
     E        1

     Band symmetry, C_1 (1)     point group:

     e(  1 -  1) =    -13.14396  eV     1   --> A              
     e(  2 -  3) =    -13.07524  eV     2   -->   2 A              
     e(  4 -  4) =    -13.01316  eV     1   --> A              
     e(  5 -  6) =    -11.04832  eV     2   -->   2 A              
     e(  7 -  7) =     -0.92452  eV     1   --> A              
     e(  8 -  8) =     -0.52163  eV     1   --> A              
     e(  9 -  9) =     -0.52152  eV     1   --> A              
     e( 10 - 10) =     -0.08750  eV     1   --> A              
     e( 11 - 11) =     10.09807  eV     1   --> A              
     e( 12 - 12) =     10.09822  eV     1   --> A              
     e( 13 - 13) =     12.07533  eV     1   --> A              
     e( 14 - 14) =     12.44341  eV     1   --> A              
     e( 15 - 15) =     12.44389  eV     1   --> A              
     e( 16 - 16) =     13.22485  eV     1   --> A              
     e( 17 - 17) =     14.00311  eV     1   --> A              
     e( 18 - 18) =     14.00351  eV     1   --> A              
     e( 19 - 19) =     14.54439  eV     1   --> A              
     e( 20 - 20) =     14.69222  eV     1   --> A              
     e( 21 - 21) =     14.69245  eV     1   --> A              
     e( 22 - 22) =     14.83584  eV     1   --> A              
     e( 23 - 23) =     15.15390  eV     1   --> A              
     e( 24 - 24) =     15.15422  eV     1   --> A              
     e( 25 - 25) =     15.33539  eV     1   --> A              
     e( 26 - 26) =     15.73976  eV     1   --> A              
     e( 27 - 27) =     15.74021  eV     1   --> A              
     e( 28 - 28) =     16.29827  eV     1   --> A              
     e( 29 - 29) =     16.76060  eV     1   --> A              
     e( 30 - 30) =     16.76088  eV     1   --> A              
     e( 31 - 31) =     17.44398  eV     1   --> A              
     e( 32 - 32) =     18.04076  eV     1   --> A              

 **************************************************************************

 **************************************************************************

                    xk=(  -0.32667,   0.56580,   0.00000  )

     Band symmetry, C_1 (1)     point group:

     e(  1 -  1) =    -13.27021  eV     1   --> A              
     e(  2 -  2) =    -13.18805  eV     1   --> A              
     e(  3 -  3) =    -12.97059  eV     1   --> A              
     e(  4 -  4) =    -12.90656  eV     1   --> A              
     e(  5 -  5) =    -11.03420  eV     1   --> A              
     e(  6 -  6) =    -11.02180  eV     1   --> A              
     e(  7 -  7) =     -1.01158  eV     1   --> A              
     e(  8 -  8) =     -0.56300  eV     1   --> A              
     e(  9 -  9) =     -0.45898  eV     1   --> A              
     e( 10 - 10) =     -0.02369  eV     1   --> A              
     e( 11 - 11) =     10.09099  eV     1   --> A              
     e( 12 - 12) =     10.11889  eV     1   --> A              
     e( 13 - 13) =     12.04523  eV     1   --> A              
     e( 14 - 14) =     12.38015  eV     1   --> A              
     e( 15 - 15) =     12.48398  eV     1   --> A              
     e( 16 - 16) =     13.19063  eV     1   --> A              
     e( 17 - 17) =     13.87201  eV     1   --> A              
     e( 18 - 18) =     14.03262  eV     1   --> A              
     e( 19 - 19) =     14.29265  eV     1   --> A              
     e( 20 - 20) =     14.75797  eV     1   --> A              
     e( 21 - 21) =     14.86047  eV     1   --> A              
     e( 22 - 22) =     14.89385  eV     1   --> A              
     e( 23 - 23) =     15.00923  eV     1   --> A              
     e( 24 - 24) =     15.20384  eV     1   --> A              
     e( 25 - 25) =     15.40168  eV     1   --> A              
     e( 26 - 26) =     15.71628  eV     1   --> A              
     e( 27 - 27) =     15.78504  eV     1   --> A              
     e( 28 - 28) =     16.33498  eV     1   --> A              
     e( 29 - 29) =     16.76348  eV     1   --> A              
     e( 30 - 30) =     16.80503  eV     1   --> A              
     e( 31 - 31) =     17.46822  eV     1   --> A              
     e( 32 - 32) =     17.97748  eV     1   --> A              

 **************************************************************************

 **************************************************************************

                    xk=(  -0.32000,   0.55426,   0.00000  )

     Band symmetry, C_1 (1)     point group:

     e(  1 -  1) =    -13.45196  eV     1   --> A              
     e(  2 -  2) =    -13.35695  eV     1   --> A              
     e(  3 -  3) =    -12.83130  eV     1   --> A              
     e(  4 -  4) =    -12.76792  eV     1   --> A              
     e(  5 -  5) =    -10.98342  eV     1   --> A              
     e(  6 -  6) =    -10.96170  eV     1   --> A              
     e(  7 -  7) =     -1.19395  eV     1   --> A              
     e(  8 -  8) =     -0.69056  eV     1   --> A              
     e(  9 -  9) =     -0.30156  eV     1   --> A              
     e( 10 - 10) =      0.12359  eV     1   --> A              
     e( 11 - 11) =     10.09557  eV     1   --> A              
     e( 12 - 12) =     10.15262  eV     1   --> A              
     e( 13 - 13) =     11.93067  eV     1   --> A              
     e( 14 - 14) =     12.32153  eV     1   --> A              
     e( 15 - 15) =     12.50515  eV     1   --> A              
     e( 16 - 16) =     13.07807  eV     1   --> A              
     e( 17 - 17) =     13.68180  eV     1   --> A              
     e( 18 - 18) =     13.93707  eV     1   --> A              
     e( 19 - 19) =     14.00018  eV     1   --> A              
     e( 20 - 20) =     14.79040  eV     1   --> A              
     e( 21 - 21) =     14.91417  eV     1   --> A              
     e( 22 - 22) =     14.95796  eV     1   --> A              
     e( 23 - 23) =     15.01844  eV     1   --> A              
     e( 24 - 24) =     15.21479  eV     1   --> A              
     e( 25 - 25) =     15.50392  eV     1   --> A              
     e( 26 - 26) =     15.77663  eV     1   --> A              
     e( 27 - 27) =     15.87279  eV     1   --> A              
     e( 28 - 28) =     16.43951  eV     1   --> A              
     e( 29 - 29) =     16.75281  eV     1   --> A              
     e( 30 - 30) =     16.90835  eV     1   --> A              
     e( 31 - 31) =     17.52682  eV     1   --> A              
     e( 32 - 32) =     17.91636  eV     1   --> A              

 **************************************************************************

 **************************************************************************

                    xk=(  -0.31333,   0.54271,   0.00000  )

     Band symmetry, C_1 (1)     point group:

     e(  1 -  1) =    -13.65350  eV     1   --> A              
     e(  2 -  2) =    -13.54822  eV     1   --> A              
     e(  3 -  3) =    -12.68549  eV     1   --> A              
     e(  4 -  4) =    -12.62294  eV     1   --> A              
     e(  5 -  5) =    -10.90368  eV     1   --> A              
     e(  6 -  6) =    -10.87535  eV     1   --> A              
     e(  7 -  7) =     -1.40570  eV     1   --> A              
     e(  8 -  8) =     -0.85279  eV     1   --> A              
     e(  9 -  9) =     -0.11427  eV     1   --> A              
     e( 10 - 10) =      0.30370  eV     1   --> A              
     e( 11 - 11) =     10.10853  eV     1   --> A              
     e( 12 - 12) =     10.19784  eV     1   --> A              
     e( 13 - 13) =     11.73047  eV     1   --> A              
     e( 14 - 14) =     12.28518  eV     1   --> A              
     e( 15 - 15) =     12.50325  eV     1   --> A              
     e( 16 - 16) =     12.88722  eV     1   --> A              
     e( 17 - 17) =     13.51180  eV     1   --> A              
     e( 18 - 18) =     13.56736  eV     1   --> A              
     e( 19 - 19) =     13.90943  eV     1   --> A              
     e( 20 - 20) =     14.60846  eV     1   --> A              
     e( 21 - 21) =     14.69248  eV     1   --> A              
     e( 22 - 22) =     15.12827  eV     1   --> A              
     e( 23 - 23) =     15.17650  eV     1   --> A              
     e( 24 - 24) =     15.37470  eV     1   --> A              
     e( 25 - 25) =     15.59598  eV     1   --> A              
     e( 26 - 26) =     15.93502  eV     1   --> A              
     e( 27 - 27) =     15.99813  eV     1   --> A              
     e( 28 - 28) =     16.53813  eV     1   --> A              
     e( 29 - 29) =     16.73522  eV     1   --> A              
     e( 30 - 30) =     17.03255  eV     1   --> A              
     e( 31 - 31) =     17.57720  eV     1   --> A              
     e( 32 - 32) =     17.94494  eV     1   --> A              

 **************************************************************************

 **************************************************************************

                    xk=(  -0.30667,   0.53116,   0.00000  )

     Band symmetry, C_1 (1)     point group:

     e(  1 -  1) =    -13.86763  eV     1   --> A              
     e(  2 -  2) =    -13.75419  eV     1   --> A              
     e(  3 -  3) =    -12.53420  eV     1   --> A              
     e(  4 -  4) =    -12.47256  eV     1   --> A              
     e(  5 -  5) =    -10.80150  eV     1   --> A              
     e(  6 -  6) =    -10.76869  eV     1   --> A              
     e(  7 -  7) =     -1.63015  eV     1   --> A              
     e(  8 -  8) =     -1.03199  eV     1   --> A              
     e(  9 -  9) =      0.08714  eV     1   --> A              
     e( 10 - 10) =      0.49972  eV     1   --> A              
     e( 11 - 11) =     10.12486  eV     1   --> A              
     e( 12 - 12) =     10.25260  eV     1   --> A              
     e( 13 - 13) =     11.47594  eV     1   --> A              
     e( 14 - 14) =     12.25480  eV     1   --> A              
     e( 15 - 15) =     12.46135  eV     1   --> A              
     e( 16 - 16) =     12.66332  eV     1   --> A              
     e( 17 - 17) =     13.19358  eV     1   --> A              
     e( 18 - 18) =     13.36765  eV     1   --> A              
     e( 19 - 19) =     13.77664  eV     1   --> A              
     e( 20 - 20) =     14.38279  eV     1   --> A              
     e( 21 - 21) =     14.39100  eV     1   --> A              
     e( 22 - 22) =     15.32332  eV     1   --> A              
     e( 23 - 23) =     15.36003  eV     1   --> A              
     e( 24 - 24) =     15.58125  eV     1   --> A              
     e( 25 - 25) =     15.66773  eV     1   --> A              
     e( 26 - 26) =     16.11258  eV     1   --> A              
     e( 27 - 27) =     16.15794  eV     1   --> A              
     e( 28 - 28) =     16.56132  eV     1   --> A              
     e( 29 - 29) =     16.70597  eV     1   --> A              
     e( 30 - 30) =     17.18955  eV     1   --> A              
     e( 31 - 31) =     17.63407  eV     1   --> A              
     e( 32 - 32) =     18.04096  eV     1   --> A              

 **************************************************************************

 **************************************************************************

                    xk=(  -0.30000,   0.51962,   0.00000  )

     Band symmetry, C_1 (1)     point group:

     e(  1 -  1) =    -14.08965  eV     1   --> A              
     e(  2 -  2) =    -13.96953  eV     1   --> A              
     e(  3 -  3) =    -12.37774  eV     1   --> A              
     e(  4 -  4) =    -12.31704  eV     1   --> A              
     e(  5 -  5) =    -10.68197  eV     1   --> A              
     e(  6 -  6) =    -10.64619  eV     1   --> A              
     e(  7 -  7) =     -1.86199  eV     1   --> A              
     e(  8 -  8) =     -1.22194  eV     1   --> A              
     e(  9 -  9) =      0.29826  eV     1   --> A              
     e( 10 - 10) =      0.70628  eV     1   --> A              
     e( 11 - 11) =     10.13712  eV     1   --> A              
     e( 12 - 12) =     10.31451  eV     1   --> A              
     e( 13 - 13) =     11.19069  eV     1   --> A              
     e( 14 - 14) =     12.21806  eV     1   --> A              
     e( 15 - 15) =     12.30273  eV     1   --> A              
     e( 16 - 16) =     12.52051  eV     1   --> A              
     e( 17 - 17) =     12.82227  eV     1   --> A              
     e( 18 - 18) =     13.23158  eV     1   --> A              
     e( 19 - 19) =     13.61738  eV     1   --> A              
     e( 20 - 20) =     14.05812  eV     1   --> A              
     e( 21 - 21) =     14.14555  eV     1   --> A              
     e( 22 - 22) =     15.53108  eV     1   --> A              
     e( 23 - 23) =     15.56204  eV     1   --> A              
     e( 24 - 24) =     15.70170  eV     1   --> A              
     e( 25 - 25) =     15.79871  eV     1   --> A              
     e( 26 - 26) =     16.20705  eV     1   --> A              
     e( 27 - 27) =     16.33204  eV     1   --> A              
     e( 28 - 28) =     16.56368  eV     1   --> A              
     e( 29 - 29) =     16.69533  eV     1   --> A              
     e( 30 - 30) =     17.39059  eV     1   --> A              
     e( 31 - 31) =     17.73601  eV     1   --> A              
     e( 32 - 32) =     18.13160  eV     1   --> A              

 **************************************************************************

 **************************************************************************

                    xk=(  -0.29333,   0.50807,   0.00000  )

     Band symmetry, C_1 (1)     point group:

     e(  1 -  1) =    -14.31619  eV     1   --> A              
     e(  2 -  2) =    -14.19050  eV     1   --> A              
     e(  3 -  3) =    -12.21619  eV     1   --> A              
     e(  4 -  4) =    -12.15646  eV     1   --> A              
     e(  5 -  5) =    -10.54865  eV     1   --> A              
     e(  6 -  6) =    -10.51094  eV     1   --> A              
     e(  7 -  7) =     -2.09867  eV     1   --> A              
     e(  8 -  8) =     -1.41966  eV     1   --> A              
     e(  9 -  9) =      0.51739  eV     1   --> A              
     e( 10 - 10) =      0.92123  eV     1   --> A              
     e( 11 - 11) =     10.13462  eV     1   --> A              
     e( 12 - 12) =     10.38055  eV     1   --> A              
     e( 13 - 13) =     10.88815  eV     1   --> A              
     e( 14 - 14) =     12.06567  eV     1   --> A              
     e( 15 - 15) =     12.16494  eV     1   --> A              
     e( 16 - 16) =     12.44719  eV     1   --> A              
     e( 17 - 17) =     12.46228  eV     1   --> A              
     e( 18 - 18) =     13.09139  eV     1   --> A              
     e( 19 - 19) =     13.44229  eV     1   --> A              
     e( 20 - 20) =     13.74093  eV     1   --> A              
     e( 21 - 21) =     13.88045  eV     1   --> A              
     e( 22 - 22) =     15.66185  eV     1   --> A              
     e( 23 - 23) =     15.75449  eV     1   --> A              
     e( 24 - 24) =     15.77827  eV     1   --> A              
     e( 25 - 25) =     15.99960  eV     1   --> A              
     e( 26 - 26) =     16.10869  eV     1   --> A              
     e( 27 - 27) =     16.49055  eV     1   --> A              
     e( 28 - 28) =     16.71185  eV     1   --> A              
     e( 29 - 29) =     16.77165  eV     1   --> A              
     e( 30 - 30) =     17.62215  eV     1   --> A              
     e( 31 - 31) =     17.87774  eV     1   --> A              
     e( 32 - 32) =     18.26507  eV     1   --> A              

 **************************************************************************

 **************************************************************************

                    xk=(  -0.28667,   0.49652,   0.00000  )

     Band symmetry, C_1 (1)     point group:

     e(  1 -  1) =    -14.54482  eV     1   --> A              
     e(  2 -  2) =    -14.41433  eV     1   --> A              
     e(  3 -  3) =    -12.04958  eV     1   --> A              
     e(  4 -  4) =    -11.99087  eV     1   --> A              
     e(  5 -  5) =    -10.40407  eV     1   --> A              
     e(  6 -  6) =    -10.36519  eV     1   --> A              
     e(  7 -  7) =     -2.33853  eV     1   --> A              
     e(  8 -  8) =     -1.62324  eV     1   --> A              
     e(  9 -  9) =      0.74373  eV     1   --> A              
     e( 10 - 10) =      1.14355  eV     1   --> A              
     e( 11 - 11) =     10.10317  eV     1   --> A              
     e( 12 - 12) =     10.44668  eV     1   --> A              
     e( 13 - 13) =     10.57653  eV     1   --> A              
     e( 14 - 14) =     11.84106  eV     1   --> A              
     e( 15 - 15) =     12.02500  eV     1   --> A              
     e( 16 - 16) =     12.18463  eV     1   --> A              
     e( 17 - 17) =     12.37081  eV     1   --> A              
     e( 18 - 18) =     12.93894  eV     1   --> A              
     e( 19 - 19) =     13.25799  eV     1   --> A              
     e( 20 - 20) =     13.44821  eV     1   --> A              
     e( 21 - 21) =     13.60525  eV     1   --> A              
     e( 22 - 22) =     15.55127  eV     1   --> A              
     e( 23 - 23) =     15.82600  eV     1   --> A              
     e( 24 - 24) =     15.98166  eV     1   --> A              
     e( 25 - 25) =     16.01413  eV     1   --> A              
     e( 26 - 26) =     16.27605  eV     1   --> A              
     e( 27 - 27) =     16.63333  eV     1   --> A              
     e( 28 - 28) =     16.93667  eV     1   --> A              
     e( 29 - 29) =     16.95088  eV     1   --> A              
     e( 30 - 30) =     17.86957  eV     1   --> A              
     e( 31 - 31) =     18.02999  eV     1   --> A              
     e( 32 - 32) =     18.39958  eV     1   --> A              

 **************************************************************************

 **************************************************************************

                    xk=(  -0.28000,   0.48497,   0.00000  )

     Band symmetry, C_1 (1)     point group:

     e(  1 -  1) =    -14.77387  eV     1   --> A              
     e(  2 -  2) =    -14.63918  eV     1   --> A              
     e(  3 -  3) =    -11.87802  eV     1   --> A              
     e(  4 -  4) =    -11.82033  eV     1   --> A              
     e(  5 -  5) =    -10.25016  eV     1   --> A              
     e(  6 -  6) =    -10.21064  eV     1   --> A              
     e(  7 -  7) =     -2.58041  eV     1   --> A              
     e(  8 -  8) =     -1.83129  eV     1   --> A              
     e(  9 -  9) =      0.97679  eV     1   --> A              
     e( 10 - 10) =      1.37265  eV     1   --> A              
     e( 11 - 11) =     10.02762  eV     1   --> A              
     e( 12 - 12) =     10.25999  eV     1   --> A              
     e( 13 - 13) =     10.50866  eV     1   --> A              
     e( 14 - 14) =     11.65270  eV     1   --> A              
     e( 15 - 15) =     11.70530  eV     1   --> A              
     e( 16 - 16) =     12.08355  eV     1   --> A              
     e( 17 - 17) =     12.27793  eV     1   --> A              
     e( 18 - 18) =     12.76638  eV     1   --> A              
     e( 19 - 19) =     13.06835  eV     1   --> A              
     e( 20 - 20) =     13.20033  eV     1   --> A              
     e( 21 - 21) =     13.32868  eV     1   --> A              
     e( 22 - 22) =     15.38740  eV     1   --> A              
     e( 23 - 23) =     15.55829  eV     1   --> A              
     e( 24 - 24) =     16.21939  eV     1   --> A              
     e( 25 - 25) =     16.25304  eV     1   --> A              
     e( 26 - 26) =     16.51942  eV     1   --> A              
     e( 27 - 27) =     16.78624  eV     1   --> A              
     e( 28 - 28) =     17.18340  eV     1   --> A              
     e( 29 - 29) =     17.18648  eV     1   --> A              
     e( 30 - 30) =     18.11832  eV     1   --> A              
     e( 31 - 31) =     18.13595  eV     1   --> A              
     e( 32 - 32) =     18.49245  eV     1   --> A              

 **************************************************************************

 **************************************************************************

                    xk=(  -0.27333,   0.47343,   0.00000  )

     Band symmetry, C_1 (1)     point group:

     e(  1 -  1) =    -15.00207  eV     1   --> A              
     e(  2 -  2) =    -14.86354  eV     1   --> A              
     e(  3 -  3) =    -11.70158  eV     1   --> A              
     e(  4 -  4) =    -11.64493  eV     1   --> A              
     e(  5 -  5) =    -10.08823  eV     1   --> A              
     e(  6 -  6) =    -10.04847  eV     1   --> A              
     e(  7 -  7) =     -2.82318  eV     1   --> A              
     e(  8 -  8) =     -2.04262  eV     1   --> A              
     e(  9 -  9) =      1.21616  eV     1   --> A              
     e( 10 - 10) =      1.60802  eV     1   --> A              
     e( 11 - 11) =      9.89858  eV     1   --> A              
     e( 12 - 12) =      9.94323  eV     1   --> A              
     e( 13 - 13) =     10.55723  eV     1   --> A              
     e( 14 - 14) =     11.36672  eV     1   --> A              
     e( 15 - 15) =     11.50270  eV     1   --> A              
     e( 16 - 16) =     12.00127  eV     1   --> A              
     e( 17 - 17) =     12.16089  eV     1   --> A              
     e( 18 - 18) =     12.57818  eV     1   --> A              
     e( 19 - 19) =     12.87396  eV     1   --> A              
     e( 20 - 20) =     13.01284  eV     1   --> A              
     e( 21 - 21) =     13.06018  eV     1   --> A              
     e( 22 - 22) =     15.19955  eV     1   --> A              
     e( 23 - 23) =     15.27487  eV     1   --> A              
     e( 24 - 24) =     16.46512  eV     1   --> A              
     e( 25 - 25) =     16.50355  eV     1   --> A              
     e( 26 - 26) =     16.77465  eV     1   --> A              
     e( 27 - 27) =     16.94199  eV     1   --> A              
     e( 28 - 28) =     17.44065  eV     1   --> A              
     e( 29 - 29) =     17.44989  eV     1   --> A              
     e( 30 - 30) =     18.13319  eV     1   --> A              
     e( 31 - 31) =     18.30715  eV     1   --> A              
     e( 32 - 32) =     18.56075  eV     1   --> A              

 **************************************************************************

 **************************************************************************

                    xk=(  -0.26667,   0.46188,   0.00000  )

     Band symmetry, C_1 (1)     point group:

     e(  1 -  1) =    -15.22847  eV     1   --> A              
     e(  2 -  2) =    -15.08640  eV     1   --> A              
     e(  3 -  3) =    -11.52028  eV     1   --> A              
     e(  4 -  4) =    -11.46470  eV     1   --> A              
     e(  5 -  5) =     -9.91941  eV     1   --> A              
     e(  6 -  6) =     -9.87968  eV     1   --> A              
     e(  7 -  7) =     -3.06603  eV     1   --> A              
     e(  8 -  8) =     -2.25623  eV     1   --> A              
     e(  9 -  9) =      1.46160  eV     1   --> A              
     e( 10 - 10) =      1.84940  eV     1   --> A              
     e( 11 - 11) =      9.62791  eV     1   --> A              
     e( 12 - 12) =      9.71840  eV     1   --> A              
     e( 13 - 13) =     10.57648  eV     1   --> A              
     e( 14 - 14) =     11.04595  eV     1   --> A              
     e( 15 - 15) =     11.37377  eV     1   --> A              
     e( 16 - 16) =     11.91188  eV     1   --> A              
     e( 17 - 17) =     12.00872  eV     1   --> A              
     e( 18 - 18) =     12.40688  eV     1   --> A              
     e( 19 - 19) =     12.66825  eV     1   --> A              
     e( 20 - 20) =     12.81448  eV     1   --> A              
     e( 21 - 21) =     12.88185  eV     1   --> A              
     e( 22 - 22) =     14.99085  eV     1   --> A              
     e( 23 - 23) =     15.00589  eV     1   --> A              
     e( 24 - 24) =     16.71762  eV     1   --> A              
     e( 25 - 25) =     16.76246  eV     1   --> A              
     e( 26 - 26) =     17.04005  eV     1   --> A              
     e( 27 - 27) =     17.06817  eV     1   --> A              
     e( 28 - 28) =     17.71225  eV     1   --> A              
     e( 29 - 29) =     17.71916  eV     1   --> A              
     e( 30 - 30) =     18.08240  eV     1   --> A              
     e( 31 - 31) =     18.28230  eV     1   --> A              
     e( 32 - 32) =     18.76346  eV     1   --> A              

 **************************************************************************

 **************************************************************************

                    xk=(  -0.26000,   0.45033,   0.00000  )

     Band symmetry, C_1 (1)     point group:

     e(  1 -  1) =    -15.45232  eV     1   --> A              
     e(  2 -  2) =    -15.30698  eV     1   --> A              
     e(  3 -  3) =    -11.33424  eV     1   --> A              
     e(  4 -  4) =    -11.27974  eV     1   --> A              
     e(  5 -  5) =     -9.74450  eV     1   --> A              
     e(  6 -  6) =     -9.70502  eV     1   --> A              
     e(  7 -  7) =     -3.30818  eV     1   --> A              
     e(  8 -  8) =     -2.47118  eV     1   --> A              
     e(  9 -  9) =      1.71284  eV     1   --> A              
     e( 10 - 10) =      2.09645  eV     1   --> A              
     e( 11 - 11) =      9.31571  eV     1   --> A              
     e( 12 - 12) =      9.49881  eV     1   --> A              
     e( 13 - 13) =     10.50650  eV     1   --> A              
     e( 14 - 14) =     10.79779  eV     1   --> A              
     e( 15 - 15) =     11.23583  eV     1   --> A              
     e( 16 - 16) =     11.81400  eV     1   --> A              
     e( 17 - 17) =     11.82259  eV     1   --> A              
     e( 18 - 18) =     12.28079  eV     1   --> A              
     e( 19 - 19) =     12.44205  eV     1   --> A              
     e( 20 - 20) =     12.60735  eV     1   --> A              
     e( 21 - 21) =     12.79649  eV     1   --> A              
     e( 22 - 22) =     14.71504  eV     1   --> A              
     e( 23 - 23) =     14.81746  eV     1   --> A              
     e( 24 - 24) =     16.97531  eV     1   --> A              
     e( 25 - 25) =     17.02789  eV     1   --> A              
     e( 26 - 26) =     17.11681  eV     1   --> A              
     e( 27 - 27) =     17.31452  eV     1   --> A              
     e( 28 - 28) =     17.94502  eV     1   --> A              
     e( 29 - 29) =     17.98702  eV     1   --> A              
     e( 30 - 30) =     18.09909  eV     1   --> A              
     e( 31 - 31) =     18.18566  eV     1   --> A              
     e( 32 - 32) =     19.03809  eV     1   --> A              

 **************************************************************************

 **************************************************************************

                    xk=(  -0.25333,   0.43879,   0.00000  )

     Band symmetry, C_1 (1)     point group:

     e(  1 -  1) =    -15.67304  eV     1   --> A              
     e(  2 -  2) =    -15.52464  eV     1   --> A              
     e(  3 -  3) =    -11.14349  eV     1   --> A              
     e(  4 -  4) =    -11.09006  eV     1   --> A              
     e(  5 -  5) =     -9.56417  eV     1   --> A              
     e(  6 -  6) =     -9.52510  eV     1   --> A              
     e(  7 -  7) =     -3.54898  eV     1   --> A              
     e(  8 -  8) =     -2.68665  eV     1   --> A              
     e(  9 -  9) =      1.96962  eV     1   --> A              
     e( 10 - 10) =      2.34890  eV     1   --> A              
     e( 11 - 11) =      9.00784  eV     1   --> A              
     e( 12 - 12) =      9.25344  eV     1   --> A              
     e( 13 - 13) =     10.26937  eV     1   --> A              
     e( 14 - 14) =     10.69199  eV     1   --> A              
     e( 15 - 15) =     11.06335  eV     1   --> A              
     e( 16 - 16) =     11.62571  eV     1   --> A              
     e( 17 - 17) =     11.70949  eV     1   --> A              
     e( 18 - 18) =     12.19153  eV     1   --> A              
     e( 19 - 19) =     12.20703  eV     1   --> A              
     e( 20 - 20) =     12.43223  eV     1   --> A              
     e( 21 - 21) =     12.75075  eV     1   --> A              
     e( 22 - 22) =     14.45648  eV     1   --> A              
     e( 23 - 23) =     14.64128  eV     1   --> A              
     e( 24 - 24) =     17.06706  eV     1   --> A              
     e( 25 - 25) =     17.23588  eV     1   --> A              
     e( 26 - 26) =     17.29621  eV     1   --> A              
     e( 27 - 27) =     17.59194  eV     1   --> A              
     e( 28 - 28) =     17.86835  eV     1   --> A              
     e( 29 - 29) =     18.18543  eV     1   --> A              
     e( 30 - 30) =     18.30722  eV     1   --> A              
     e( 31 - 31) =     18.36352  eV     1   --> A              
     e( 32 - 32) =     19.33042  eV     1   --> A              

 **************************************************************************

 **************************************************************************

                    xk=(  -0.24667,   0.42724,   0.00000  )

     Band symmetry, C_1 (1)     point group:

     e(  1 -  1) =    -15.89016  eV     1   --> A              
     e(  2 -  2) =    -15.73885  eV     1   --> A              
     e(  3 -  3) =    -10.94812  eV     1   --> A              
     e(  4 -  4) =    -10.89579  eV     1   --> A              
     e(  5 -  5) =     -9.37897  eV     1   --> A              
     e(  6 -  6) =     -9.34043  eV     1   --> A              
     e(  7 -  7) =     -3.78771  eV     1   --> A              
     e(  8 -  8) =     -2.90187  eV     1   --> A              
     e(  9 -  9) =      2.23172  eV     1   --> A              
     e( 10 - 10) =      2.60653  eV     1   --> A              
     e( 11 - 11) =      8.70514  eV     1   --> A              
     e( 12 - 12) =      8.99322  eV     1   --> A              
     e( 13 - 13) =      9.97047  eV     1   --> A              
     e( 14 - 14) =     10.61555  eV     1   --> A              
     e( 15 - 15) =     10.85045  eV     1   --> A              
     e( 16 - 16) =     11.43498  eV     1   --> A              
     e( 17 - 17) =     11.59972  eV     1   --> A              
     e( 18 - 18) =     11.98122  eV     1   --> A              
     e( 19 - 19) =     12.11711  eV     1   --> A              
     e( 20 - 20) =     12.27537  eV     1   --> A              
     e( 21 - 21) =     12.73573  eV     1   --> A              
     e( 22 - 22) =     14.22805  eV     1   --> A              
     e( 23 - 23) =     14.48158  eV     1   --> A              
     e( 24 - 24) =     16.95470  eV     1   --> A              
     e( 25 - 25) =     17.49570  eV     1   --> A              
     e( 26 - 26) =     17.52602  eV     1   --> A              
     e( 27 - 27) =     17.66774  eV     1   --> A              
     e( 28 - 28) =     17.91466  eV     1   --> A              
     e( 29 - 29) =     18.38469  eV     1   --> A              
     e( 30 - 30) =     18.60171  eV     1   --> A              
     e( 31 - 31) =     18.65778  eV     1   --> A              
     e( 32 - 32) =     19.62984  eV     1   --> A              

 **************************************************************************

 **************************************************************************

                    xk=(  -0.24000,   0.41569,   0.00000  )

     Band symmetry, C_1 (1)     point group:

     e(  1 -  1) =    -16.10336  eV     1   --> A              
     e(  2 -  2) =    -15.94927  eV     1   --> A              
     e(  3 -  3) =    -10.74825  eV     1   --> A              
     e(  4 -  4) =    -10.69703  eV     1   --> A              
     e(  5 -  5) =     -9.18946  eV     1   --> A              
     e(  6 -  6) =     -9.15157  eV     1   --> A              
     e(  7 -  7) =     -4.02391  eV     1   --> A              
     e(  8 -  8) =     -3.11618  eV     1   --> A              
     e(  9 -  9) =      2.49889  eV     1   --> A              
     e( 10 - 10) =      2.86904  eV     1   --> A              
     e( 11 - 11) =      8.40828  eV     1   --> A              
     e( 12 - 12) =      8.72569  eV     1   --> A              
     e( 13 - 13) =      9.66509  eV     1   --> A              
     e( 14 - 14) =     10.50986  eV     1   --> A              
     e( 15 - 15) =     10.60792  eV     1   --> A              
     e( 16 - 16) =     11.25140  eV     1   --> A              
     e( 17 - 17) =     11.47964  eV     1   --> A              
     e( 18 - 18) =     11.77844  eV     1   --> A              
     e( 19 - 19) =     12.04305  eV     1   --> A              
     e( 20 - 20) =     12.12927  eV     1   --> A              
     e( 21 - 21) =     12.72828  eV     1   --> A              
     e( 22 - 22) =     14.05069  eV     1   --> A              
     e( 23 - 23) =     14.34001  eV     1   --> A              
     e( 24 - 24) =     16.82221  eV     1   --> A              
     e( 25 - 25) =     17.37159  eV     1   --> A              
     e( 26 - 26) =     17.74869  eV     1   --> A              
     e( 27 - 27) =     17.86732  eV     1   --> A              
     e( 28 - 28) =     18.20958  eV     1   --> A              
     e( 29 - 29) =     18.62290  eV     1   --> A              
     e( 30 - 30) =     18.90300  eV     1   --> A              
     e( 31 - 31) =     18.96951  eV     1   --> A              
     e( 32 - 32) =     19.91661  eV     1   --> A              

 **************************************************************************

 **************************************************************************

                    xk=(  -0.23333,   0.40415,   0.00000  )

     Band symmetry, C_1 (1)     point group:

     e(  1 -  1) =    -16.31228  eV     1   --> A              
     e(  2 -  2) =    -16.15554  eV     1   --> A              
     e(  3 -  3) =    -10.54393  eV     1   --> A              
     e(  4 -  4) =    -10.49380  eV     1   --> A              
     e(  5 -  5) =     -8.99607  eV     1   --> A              
     e(  6 -  6) =     -8.95888  eV     1   --> A              
     e(  7 -  7) =     -4.25707  eV     1   --> A              
     e(  8 -  8) =     -3.32897  eV     1   --> A              
     e(  9 -  9) =      2.77084  eV     1   --> A              
     e( 10 - 10) =      3.13616  eV     1   --> A              
     e( 11 - 11) =      8.11775  eV     1   --> A              
     e( 12 - 12) =      8.45575  eV     1   --> A              
     e( 13 - 13) =      9.36340  eV     1   --> A              
     e( 14 - 14) =     10.34943  eV     1   --> A              
     e( 15 - 15) =     10.36818  eV     1   --> A              
     e( 16 - 16) =     11.07130  eV     1   --> A              
     e( 17 - 17) =     11.33554  eV     1   --> A              
     e( 18 - 18) =     11.61215  eV     1   --> A              
     e( 19 - 19) =     11.96450  eV     1   --> A              
     e( 20 - 20) =     11.98992  eV     1   --> A              
     e( 21 - 21) =     12.69116  eV     1   --> A              
     e( 22 - 22) =     13.95332  eV     1   --> A              
     e( 23 - 23) =     14.21537  eV     1   --> A              
     e( 24 - 24) =     16.69505  eV     1   --> A              
     e( 25 - 25) =     17.13355  eV     1   --> A              
     e( 26 - 26) =     17.98437  eV     1   --> A              
     e( 27 - 27) =     18.13114  eV     1   --> A              
     e( 28 - 28) =     18.51952  eV     1   --> A              
     e( 29 - 29) =     18.88001  eV     1   --> A              
     e( 30 - 30) =     19.19841  eV     1   --> A              
     e( 31 - 31) =     19.28816  eV     1   --> A              
     e( 32 - 32) =     19.97917  eV     1   --> A              

 **************************************************************************

 **************************************************************************

                    xk=(  -0.22667,   0.39260,   0.00000  )

     Band symmetry, C_1 (1)     point group:

     e(  1 -  1) =    -16.51672  eV     1   --> A              
     e(  2 -  2) =    -16.35741  eV     1   --> A              
     e(  3 -  3) =    -10.33531  eV     1   --> A              
     e(  4 -  4) =    -10.28631  eV     1   --> A              
     e(  5 -  5) =     -8.79924  eV     1   --> A              
     e(  6 -  6) =     -8.76283  eV     1   --> A              
     e(  7 -  7) =     -4.48671  eV     1   --> A              
     e(  8 -  8) =     -3.53968  eV     1   --> A              
     e(  9 -  9) =      3.04729  eV     1   --> A              
     e( 10 - 10) =      3.40758  eV     1   --> A              
     e( 11 - 11) =      7.83394  eV     1   --> A              
     e( 12 - 12) =      8.18662  eV     1   --> A              
     e( 13 - 13) =      9.06809  eV     1   --> A              
     e( 14 - 14) =     10.08458  eV     1   --> A              
     e( 15 - 15) =     10.19635  eV     1   --> A              
     e( 16 - 16) =     10.89257  eV     1   --> A              
     e( 17 - 17) =     11.16281  eV     1   --> A              
     e( 18 - 18) =     11.48064  eV     1   --> A              
     e( 19 - 19) =     11.85574  eV     1   --> A              
     e( 20 - 20) =     11.88133  eV     1   --> A              
     e( 21 - 21) =     12.59437  eV     1   --> A              
     e( 22 - 22) =     13.95603  eV     1   --> A              
     e( 23 - 23) =     14.10356  eV     1   --> A              
     e( 24 - 24) =     16.58777  eV     1   --> A              
     e( 25 - 25) =     16.89201  eV     1   --> A              
     e( 26 - 26) =     18.18463  eV     1   --> A              
     e( 27 - 27) =     18.37886  eV     1   --> A              
     e( 28 - 28) =     18.83729  eV     1   --> A              
     e( 29 - 29) =     19.13673  eV     1   --> A              
     e( 30 - 30) =     19.46199  eV     1   --> A              
     e( 31 - 31) =     19.60494  eV     1   --> A              
     e( 32 - 32) =     19.99143  eV     1   --> A              

 **************************************************************************

 **************************************************************************

                    xk=(  -0.22000,   0.38105,   0.00000  )

     Band symmetry, C_1 (1)     point group:

     e(  1 -  1) =    -16.71641  eV     1   --> A              
     e(  2 -  2) =    -16.55464  eV     1   --> A              
     e(  3 -  3) =    -10.12246  eV     1   --> A              
     e(  4 -  4) =    -10.07459  eV     1   --> A              
     e(  5 -  5) =     -8.59937  eV     1   --> A              
     e(  6 -  6) =     -8.56379  eV     1   --> A              
     e(  7 -  7) =     -4.71242  eV     1   --> A              
     e(  8 -  8) =     -3.74777  eV     1   --> A              
     e(  9 -  9) =      3.32798  eV     1   --> A              
     e( 10 - 10) =      3.68304  eV     1   --> A              
     e( 11 - 11) =      7.55716  eV     1   --> A              
     e( 12 - 12) =      7.92040  eV     1   --> A              
     e( 13 - 13) =      8.78018  eV     1   --> A              
     e( 14 - 14) =      9.81903  eV     1   --> A              
     e( 15 - 15) =     10.00323  eV     1   --> A              
     e( 16 - 16) =     10.71481  eV     1   --> A              
     e( 17 - 17) =     10.97463  eV     1   --> A              
     e( 18 - 18) =     11.36245  eV     1   --> A              
     e( 19 - 19) =     11.72771  eV     1   --> A              
     e( 20 - 20) =     11.79468  eV     1   --> A              
     e( 21 - 21) =     12.43880  eV     1   --> A              
     e( 22 - 22) =     13.99831  eV     1   --> A              
     e( 23 - 23) =     14.04895  eV     1   --> A              
     e( 24 - 24) =     16.50915  eV     1   --> A              
     e( 25 - 25) =     16.65505  eV     1   --> A              
     e( 26 - 26) =     18.32120  eV     1   --> A              
     e( 27 - 27) =     18.58200  eV     1   --> A              
     e( 28 - 28) =     19.16041  eV     1   --> A              
     e( 29 - 29) =     19.34841  eV     1   --> A              
     e( 30 - 30) =     19.65031  eV     1   --> A              
     e( 31 - 31) =     19.89537  eV     1   --> A              
     e( 32 - 32) =     20.09020  eV     1   --> A              

 **************************************************************************

 **************************************************************************

                    xk=(  -0.21333,   0.36950,   0.00000  )

     Band symmetry, C_1 (1)     point group:

     e(  1 -  1) =    -16.91117  eV     1   --> A              
     e(  2 -  2) =    -16.74704  eV     1   --> A              
     e(  3 -  3) =     -9.90555  eV     1   --> A              
     e(  4 -  4) =     -9.85883  eV     1   --> A              
     e(  5 -  5) =     -8.39685  eV     1   --> A              
     e(  6 -  6) =     -8.36216  eV     1   --> A              
     e(  7 -  7) =     -4.93385  eV     1   --> A              
     e(  8 -  8) =     -3.95279  eV     1   --> A              
     e(  9 -  9) =      3.61252  eV     1   --> A              
     e( 10 - 10) =      3.96215  eV     1   --> A              
     e( 11 - 11) =      7.28764  eV     1   --> A              
     e( 12 - 12) =      7.65855  eV     1   --> A              
     e( 13 - 13) =      8.50015  eV     1   --> A              
     e( 14 - 14) =      9.55606  eV     1   --> A              
     e( 15 - 15) =      9.79683  eV     1   --> A              
     e( 16 - 16) =     10.53851  eV     1   --> A              
     e( 17 - 17) =     10.78258  eV     1   --> A              
     e( 18 - 18) =     11.23913  eV     1   --> A              
     e( 19 - 19) =     11.60826  eV     1   --> A              
     e( 20 - 20) =     11.70551  eV     1   --> A              
     e( 21 - 21) =     12.24500  eV     1   --> A              
     e( 22 - 22) =     13.89268  eV     1   --> A              
     e( 23 - 23) =     14.20317  eV     1   --> A              
     e( 24 - 24) =     16.42830  eV     1   --> A              
     e( 25 - 25) =     16.46378  eV     1   --> A              
     e( 26 - 26) =     18.36242  eV     1   --> A              
     e( 27 - 27) =     18.69423  eV     1   --> A              
     e( 28 - 28) =     19.41668  eV     1   --> A              
     e( 29 - 29) =     19.48550  eV     1   --> A              
     e( 30 - 30) =     19.84684  eV     1   --> A              
     e( 31 - 31) =     20.09896  eV     1   --> A              
     e( 32 - 32) =     20.30732  eV     1   --> A              

 **************************************************************************

 **************************************************************************

                    xk=(  -0.20667,   0.35796,   0.00000  )

     Band symmetry, C_1 (1)     point group:

     e(  1 -  1) =    -17.10087  eV     1   --> A              
     e(  2 -  2) =    -16.93448  eV     1   --> A              
     e(  3 -  3) =     -9.68467  eV     1   --> A              
     e(  4 -  4) =     -9.63911  eV     1   --> A              
     e(  5 -  5) =     -8.19208  eV     1   --> A              
     e(  6 -  6) =     -8.15830  eV     1   --> A              
     e(  7 -  7) =     -5.15069  eV     1   --> A              
     e(  8 -  8) =     -4.15432  eV     1   --> A              
     e(  9 -  9) =      3.90061  eV     1   --> A              
     e( 10 - 10) =      4.24456  eV     1   --> A              
     e( 11 - 11) =      7.02560  eV     1   --> A              
     e( 12 - 12) =      7.40207  eV     1   --> A              
     e( 13 - 13) =      8.22825  eV     1   --> A              
     e( 14 - 14) =      9.29759  eV     1   --> A              
     e( 15 - 15) =      9.58324  eV     1   --> A              
     e( 16 - 16) =     10.36436  eV     1   --> A              
     e( 17 - 17) =     10.59190  eV     1   --> A              
     e( 18 - 18) =     11.10262  eV     1   --> A              
     e( 19 - 19) =     11.49870  eV     1   --> A              
     e( 20 - 20) =     11.61446  eV     1   --> A              
     e( 21 - 21) =     12.03162  eV     1   --> A              
     e( 22 - 22) =     13.78089  eV     1   --> A              
     e( 23 - 23) =     14.39024  eV     1   --> A              
     e( 24 - 24) =     16.21926  eV     1   --> A              
     e( 25 - 25) =     16.45184  eV     1   --> A              
     e( 26 - 26) =     18.29533  eV     1   --> A              
     e( 27 - 27) =     18.66915  eV     1   --> A              
     e( 28 - 28) =     19.37051  eV     1   --> A              
     e( 29 - 29) =     19.80449  eV     1   --> A              
     e( 30 - 30) =     20.10934  eV     1   --> A              
     e( 31 - 31) =     20.25212  eV     1   --> A              
     e( 32 - 32) =     20.56501  eV     1   --> A              

 **************************************************************************

 **************************************************************************

                    xk=(  -0.20000,   0.34641,   0.00000  )

     Band symmetry, C_1 (1)     point group:

     e(  1 -  1) =    -17.28538  eV     1   --> A              
     e(  2 -  2) =    -17.11677  eV     1   --> A              
     e(  3 -  3) =     -9.46003  eV     1   --> A              
     e(  4 -  4) =     -9.41569  eV     1   --> A              
     e(  5 -  5) =     -7.98549  eV     1   --> A              
     e(  6 -  6) =     -7.95267  eV     1   --> A              
     e(  7 -  7) =     -5.36259  eV     1   --> A              
     e(  8 -  8) =     -4.35198  eV     1   --> A              
     e(  9 -  9) =      4.19181  eV     1   --> A              
     e( 10 - 10) =      4.52985  eV     1   --> A              
     e( 11 - 11) =      6.77118  eV     1   --> A              
     e( 12 - 12) =      7.15168  eV     1   --> A              
     e( 13 - 13) =      7.96464  eV     1   --> A              
     e( 14 - 14) =      9.04484  eV     1   --> A              
     e( 15 - 15) =      9.36679  eV     1   --> A              
     e( 16 - 16) =     10.19310  eV     1   --> A              
     e( 17 - 17) =     10.40480  eV     1   --> A              
     e( 18 - 18) =     10.95248  eV     1   --> A              
     e( 19 - 19) =     11.39767  eV     1   --> A              
     e( 20 - 20) =     11.52172  eV     1   --> A              
     e( 21 - 21) =     11.81018  eV     1   --> A              
     e( 22 - 22) =     13.65949  eV     1   --> A              
     e( 23 - 23) =     14.58300  eV     1   --> A              
     e( 24 - 24) =     16.04159  eV     1   --> A              
     e( 25 - 25) =     16.46876  eV     1   --> A              
     e( 26 - 26) =     18.13641  eV     1   --> A              
     e( 27 - 27) =     18.51128  eV     1   --> A              
     e( 28 - 28) =     19.28670  eV     1   --> A              
     e( 29 - 29) =     20.08188  eV     1   --> A              
     e( 30 - 30) =     20.40472  eV     1   --> A              
     e( 31 - 31) =     20.46594  eV     1   --> A              
     e( 32 - 32) =     20.52416  eV     1   --> A              

 **************************************************************************

 **************************************************************************

                    xk=(  -0.19333,   0.33486,   0.00000  )

     Band symmetry, C_1 (1)     point group:

     e(  1 -  1) =    -17.46454  eV     1   --> A              
     e(  2 -  2) =    -17.29380  eV     1   --> A              
     e(  3 -  3) =     -9.23187  eV     1   --> A              
     e(  4 -  4) =     -9.18870  eV     1   --> A              
     e(  5 -  5) =     -7.77751  eV     1   --> A              
     e(  6 -  6) =     -7.74565  eV     1   --> A              
     e(  7 -  7) =     -5.56930  eV     1   --> A              
     e(  8 -  8) =     -4.54541  eV     1   --> A              
     e(  9 -  9) =      4.48575  eV     1   --> A              
     e( 10 - 10) =      4.81763  eV     1   --> A              
     e( 11 - 11) =      6.52454  eV     1   --> A              
     e( 12 - 12) =      6.90792  eV     1   --> A              
     e( 13 - 13) =      7.70942  eV     1   --> A              
     e( 14 - 14) =      8.79858  eV     1   --> A              
     e( 15 - 15) =      9.15050  eV     1   --> A              
     e( 16 - 16) =     10.02539  eV     1   --> A              
     e( 17 - 17) =     10.22230  eV     1   --> A              
     e( 18 - 18) =     10.79201  eV     1   --> A              
     e( 19 - 19) =     11.30226  eV     1   --> A              
     e( 20 - 20) =     11.42683  eV     1   --> A              
     e( 21 - 21) =     11.58768  eV     1   --> A              
     e( 22 - 22) =     13.52757  eV     1   --> A              
     e( 23 - 23) =     14.74486  eV     1   --> A              
     e( 24 - 24) =     15.92337  eV     1   --> A              
     e( 25 - 25) =     16.50518  eV     1   --> A              
     e( 26 - 26) =     17.91377  eV     1   --> A              
     e( 27 - 27) =     18.26642  eV     1   --> A              
     e( 28 - 28) =     19.19754  eV     1   --> A              
     e( 29 - 29) =     20.14363  eV     1   --> A              
     e( 30 - 30) =     20.61572  eV     1   --> A              
     e( 31 - 31) =     20.72351  eV     1   --> A              
     e( 32 - 32) =     20.75351  eV     1   --> A              

 **************************************************************************

 **************************************************************************

                    xk=(  -0.18667,   0.32332,   0.00000  )

     Band symmetry, C_1 (1)     point group:

     e(  1 -  1) =    -17.63826  eV     1   --> A              
     e(  2 -  2) =    -17.46547  eV     1   --> A              
     e(  3 -  3) =     -9.00030  eV     1   --> A              
     e(  4 -  4) =     -8.95833  eV     1   --> A              
     e(  5 -  5) =     -7.56856  eV     1   --> A              
     e(  6 -  6) =     -7.53766  eV     1   --> A              
     e(  7 -  7) =     -5.77055  eV     1   --> A              
     e(  8 -  8) =     -4.73430  eV     1   --> A              
     e(  9 -  9) =      4.78195  eV     1   --> A              
     e( 10 - 10) =      5.10740  eV     1   --> A              
     e( 11 - 11) =      6.28578  eV     1   --> A              
     e( 12 - 12) =      6.67121  eV     1   --> A              
     e( 13 - 13) =      7.46266  eV     1   --> A              
     e( 14 - 14) =      8.55935  eV     1   --> A              
     e( 15 - 15) =      8.93648  eV     1   --> A              
     e( 16 - 16) =      9.86185  eV     1   --> A              
     e( 17 - 17) =     10.04502  eV     1   --> A              
     e( 18 - 18) =     10.62510  eV     1   --> A              
     e( 19 - 19) =     11.20971  eV     1   --> A              
     e( 20 - 20) =     11.32262  eV     1   --> A              
     e( 21 - 21) =     11.37490  eV     1   --> A              
     e( 22 - 22) =     13.38615  eV     1   --> A              
     e( 23 - 23) =     14.82352  eV     1   --> A              
     e( 24 - 24) =     15.91031  eV     1   --> A              
     e( 25 - 25) =     16.54708  eV     1   --> A              
     e( 26 - 26) =     17.65166  eV     1   --> A              
     e( 27 - 27) =     17.97510  eV     1   --> A              
     e( 28 - 28) =     19.12433  eV     1   --> A              
     e( 29 - 29) =     20.00601  eV     1   --> A              
     e( 30 - 30) =     20.90282  eV     1   --> A              
     e( 31 - 31) =     21.06194  eV     1   --> A              
     e( 32 - 32) =     21.07984  eV     1   --> A              

 **************************************************************************

 **************************************************************************

                    xk=(  -0.18000,   0.31177,   0.00000  )

     Band symmetry, C_1 (1)     point group:

     e(  1 -  1) =    -17.80646  eV     1   --> A              
     e(  2 -  2) =    -17.63169  eV     1   --> A              
     e(  3 -  3) =     -8.76558  eV     1   --> A              
     e(  4 -  4) =     -8.72478  eV     1   --> A              
     e(  5 -  5) =     -7.35903  eV     1   --> A              
     e(  6 -  6) =     -7.32912  eV     1   --> A              
     e(  7 -  7) =     -5.96617  eV     1   --> A              
     e(  8 -  8) =     -4.91839  eV     1   --> A              
     e(  9 -  9) =      5.07987  eV     1   --> A              
     e( 10 - 10) =      5.39857  eV     1   --> A              
     e( 11 - 11) =      6.05506  eV     1   --> A              
     e( 12 - 12) =      6.44194  eV     1   --> A              
     e( 13 - 13) =      7.22440  eV     1   --> A              
     e( 14 - 14) =      8.32752  eV     1   --> A              
     e( 15 - 15) =      8.72621  eV     1   --> A              
     e( 16 - 16) =      9.70301  eV     1   --> A              
     e( 17 - 17) =      9.87333  eV     1   --> A              
     e( 18 - 18) =     10.45502  eV     1   --> A              
     e( 19 - 19) =     11.11803  eV     1   --> A              
     e( 20 - 20) =     11.13886  eV     1   --> A              
     e( 21 - 21) =     11.24405  eV     1   --> A              
     e( 22 - 22) =     13.23729  eV     1   --> A              
     e( 23 - 23) =     14.79002  eV     1   --> A              
     e( 24 - 24) =     16.02346  eV     1   --> A              
     e( 25 - 25) =     16.57500  eV     1   --> A              
     e( 26 - 26) =     17.37069  eV     1   --> A              
     e( 27 - 27) =     17.66467  eV     1   --> A              
     e( 28 - 28) =     19.08425  eV     1   --> A              
     e( 29 - 29) =     19.83077  eV     1   --> A              
     e( 30 - 30) =     21.22646  eV     1   --> A              
     e( 31 - 31) =     21.41649  eV     1   --> A              
     e( 32 - 32) =     21.43096  eV     1   --> A              

 **************************************************************************

 **************************************************************************

                    xk=(  -0.17333,   0.30022,   0.00000  )

     Band symmetry, C_1 (1)     point group:

     e(  1 -  1) =    -17.96904  eV     1   --> A              
     e(  2 -  2) =    -17.79235  eV     1   --> A              
     e(  3 -  3) =     -8.52793  eV     1   --> A              
     e(  4 -  4) =     -8.48823  eV     1   --> A              
     e(  5 -  5) =     -7.14938  eV     1   --> A              
     e(  6 -  6) =     -7.12044  eV     1   --> A              
     e(  7 -  7) =     -6.15592  eV     1   --> A              
     e(  8 -  8) =     -5.09736  eV     1   --> A              
     e(  9 -  9) =      5.37883  eV     1   --> A              
     e( 10 - 10) =      5.69026  eV     1   --> A              
     e( 11 - 11) =      5.83266  eV     1   --> A              
     e( 12 - 12) =      6.22070  eV     1   --> A              
     e( 13 - 13) =      6.99470  eV     1   --> A              
     e( 14 - 14) =      8.10336  eV     1   --> A              
     e( 15 - 15) =      8.52077  eV     1   --> A              
     e( 16 - 16) =      9.54933  eV     1   --> A              
     e( 17 - 17) =      9.70755  eV     1   --> A              
     e( 18 - 18) =     10.28426  eV     1   --> A              
     e( 19 - 19) =     10.92827  eV     1   --> A              
     e( 20 - 20) =     11.02582  eV     1   --> A              
     e( 21 - 21) =     11.14350  eV     1   --> A              
     e( 22 - 22) =     13.08336  eV     1   --> A              
     e( 23 - 23) =     14.67609  eV     1   --> A              
     e( 24 - 24) =     16.21357  eV     1   --> A              
     e( 25 - 25) =     16.55808  eV     1   --> A              
     e( 26 - 26) =     17.09838  eV     1   --> A              
     e( 27 - 27) =     17.36301  eV     1   --> A              
     e( 28 - 28) =     19.09051  eV     1   --> A              
     e( 29 - 29) =     19.64882  eV     1   --> A              
     e( 30 - 30) =     21.55659  eV     1   --> A              
     e( 31 - 31) =     21.78383  eV     1   --> A              
     e( 32 - 32) =     21.79707  eV     1   --> A              

 **************************************************************************

 **************************************************************************

                    xk=(  -0.16667,   0.28868,   0.00000  )

     Band symmetry, C_1 (1)     point group:

     e(  1 -  1) =    -18.12593  eV     1   --> A              
     e(  2 -  2) =    -17.94741  eV     1   --> A              
     e(  3 -  3) =     -8.28767  eV     1   --> A              
     e(  4 -  4) =     -8.24921  eV     1   --> A              
     e(  5 -  5) =     -6.94016  eV     1   --> A              
     e(  6 -  6) =     -6.91224  eV     1   --> A              
     e(  7 -  7) =     -6.33963  eV     1   --> A              
     e(  8 -  8) =     -5.27104  eV     1   --> A              
     e(  9 -  9) =      5.61204  eV     1   --> A              
     e( 10 - 10) =      5.68473  eV     1   --> A              
     e( 11 - 11) =      5.96410  eV     1   --> A              
     e( 12 - 12) =      6.02543  eV     1   --> A              
     e( 13 - 13) =      6.77358  eV     1   --> A              
     e( 14 - 14) =      7.88708  eV     1   --> A              
     e( 15 - 15) =      8.32094  eV     1   --> A              
     e( 16 - 16) =      9.40118  eV     1   --> A              
     e( 17 - 17) =      9.54787  eV     1   --> A              
     e( 18 - 18) =     10.11468  eV     1   --> A              
     e( 19 - 19) =     10.72185  eV     1   --> A              
     e( 20 - 20) =     10.93205  eV     1   --> A              
     e( 21 - 21) =     11.04270  eV     1   --> A              
     e( 22 - 22) =     12.92666  eV     1   --> A              
     e( 23 - 23) =     14.52389  eV     1   --> A              
     e( 24 - 24) =     16.37420  eV     1   --> A              
     e( 25 - 25) =     16.44001  eV     1   --> A              
     e( 26 - 26) =     16.88831  eV     1   --> A              
     e( 27 - 27) =     17.14021  eV     1   --> A              
     e( 28 - 28) =     19.15081  eV     1   --> A              
     e( 29 - 29) =     19.46757  eV     1   --> A              
     e( 30 - 30) =     21.88299  eV     1   --> A              
     e( 31 - 31) =     22.16047  eV     1   --> A              
     e( 32 - 32) =     22.17315  eV     1   --> A              

 **************************************************************************

 **************************************************************************

                    xk=(  -0.16000,   0.27713,   0.00000  )

     Band symmetry, C_1 (1)     point group:

     e(  1 -  1) =    -18.27706  eV     1   --> A              
     e(  2 -  2) =    -18.09677  eV     1   --> A              
     e(  3 -  3) =     -8.04519  eV     1   --> A              
     e(  4 -  4) =     -8.00793  eV     1   --> A              
     e(  5 -  5) =     -6.73184  eV     1   --> A              
     e(  6 -  6) =     -6.70493  eV     1   --> A              
     e(  7 -  7) =     -6.51712  eV     1   --> A              
     e(  8 -  8) =     -5.43917  eV     1   --> A              
     e(  9 -  9) =      5.41003  eV     1   --> A              
     e( 10 - 10) =      5.79661  eV     1   --> A              
     e( 11 - 11) =      5.98020  eV     1   --> A              
     e( 12 - 12) =      6.27907  eV     1   --> A              
     e( 13 - 13) =      6.56108  eV     1   --> A              
     e( 14 - 14) =      7.67884  eV     1   --> A              
     e( 15 - 15) =      8.12729  eV     1   --> A              
     e( 16 - 16) =      9.25896  eV     1   --> A              
     e( 17 - 17) =      9.39455  eV     1   --> A              
     e( 18 - 18) =      9.94768  eV     1   --> A              
     e( 19 - 19) =     10.52165  eV     1   --> A              
     e( 20 - 20) =     10.83589  eV     1   --> A              
     e( 21 - 21) =     10.93972  eV     1   --> A              
     e( 22 - 22) =     12.76919  eV     1   --> A              
     e( 23 - 23) =     14.35667  eV     1   --> A              
     e( 24 - 24) =     16.19642  eV     1   --> A              
     e( 25 - 25) =     16.31519  eV     1   --> A              
     e( 26 - 26) =     16.76651  eV     1   --> A              
     e( 27 - 27) =     17.16669  eV     1   --> A              
     e( 28 - 28) =     19.26601  eV     1   --> A              
     e( 29 - 29) =     19.29043  eV     1   --> A              
     e( 30 - 30) =     22.19685  eV     1   --> A              
     e( 31 - 31) =     22.54094  eV     1   --> A              
     e( 32 - 32) =     22.55607  eV     1   --> A              

 **************************************************************************

 **************************************************************************

                    xk=(  -0.15333,   0.26558,   0.00000  )

     Band symmetry, C_1 (1)     point group:

     e(  1 -  1) =    -18.42237  eV     1   --> A              
     e(  2 -  2) =    -18.24040  eV     1   --> A              
     e(  3 -  3) =     -7.80079  eV     1   --> A              
     e(  4 -  4) =     -7.76472  eV     1   --> A              
     e(  5 -  5) =     -6.68827  eV     1   --> A              
     e(  6 -  6) =     -6.52493  eV     1   --> A              
     e(  7 -  7) =     -6.49900  eV     1   --> A              
     e(  8 -  8) =     -5.60158  eV     1   --> A              
     e(  9 -  9) =      5.21199  eV     1   --> A              
     e( 10 - 10) =      5.59902  eV     1   --> A              
     e( 11 - 11) =      6.27881  eV     1   --> A              
     e( 12 - 12) =      6.35768  eV     1   --> A              
     e( 13 - 13) =      6.56976  eV     1   --> A              
     e( 14 - 14) =      7.47882  eV     1   --> A              
     e( 15 - 15) =      7.94028  eV     1   --> A              
     e( 16 - 16) =      9.12295  eV     1   --> A              
     e( 17 - 17) =      9.24775  eV     1   --> A              
     e( 18 - 18) =      9.78430  eV     1   --> A              
     e( 19 - 19) =     10.32833  eV     1   --> A              
     e( 20 - 20) =     10.73656  eV     1   --> A              
     e( 21 - 21) =     10.83374  eV     1   --> A              
     e( 22 - 22) =     12.61259  eV     1   --> A              
     e( 23 - 23) =     14.18516  eV     1   --> A              
     e( 24 - 24) =     15.89065  eV     1   --> A              
     e( 25 - 25) =     16.05533  eV     1   --> A              
     e( 26 - 26) =     16.67601  eV     1   --> A              
     e( 27 - 27) =     17.41461  eV     1   --> A              
     e( 28 - 28) =     19.12015  eV     1   --> A              
     e( 29 - 29) =     19.43048  eV     1   --> A              
     e( 30 - 30) =     22.48763  eV     1   --> A              
     e( 31 - 31) =     22.90341  eV     1   --> A              
     e( 32 - 32) =     22.91584  eV     1   --> A              

 **************************************************************************

 **************************************************************************

                    xk=(  -0.14667,   0.25403,   0.00000  )

     Band symmetry, C_1 (1)     point group:

     e(  1 -  1) =    -18.56181  eV     1   --> A              
     e(  2 -  2) =    -18.37821  eV     1   --> A              
     e(  3 -  3) =     -7.55489  eV     1   --> A              
     e(  4 -  4) =     -7.51996  eV     1   --> A              
     e(  5 -  5) =     -6.85286  eV     1   --> A              
     e(  6 -  6) =     -6.31996  eV     1   --> A              
     e(  7 -  7) =     -6.29501  eV     1   --> A              
     e(  8 -  8) =     -5.75807  eV     1   --> A              
     e(  9 -  9) =      5.02202  eV     1   --> A              
     e( 10 - 10) =      5.40891  eV     1   --> A              
     e( 11 - 11) =      6.16167  eV     1   --> A              
     e( 12 - 12) =      6.57745  eV     1   --> A              
     e( 13 - 13) =      6.85890  eV     1   --> A              
     e( 14 - 14) =      7.28744  eV     1   --> A              
     e( 15 - 15) =      7.76025  eV     1   --> A              
     e( 16 - 16) =      8.99352  eV     1   --> A              
     e( 17 - 17) =      9.10766  eV     1   --> A              
     e( 18 - 18) =      9.62538  eV     1   --> A              
     e( 19 - 19) =     10.14228  eV     1   --> A              
     e( 20 - 20) =     10.63330  eV     1   --> A              
     e( 21 - 21) =     10.72397  eV     1   --> A              
     e( 22 - 22) =     12.45823  eV     1   --> A              
     e( 23 - 23) =     14.01452  eV     1   --> A              
     e( 24 - 24) =     15.56574  eV     1   --> A              
     e( 25 - 25) =     15.73754  eV     1   --> A              
     e( 26 - 26) =     16.58301  eV     1   --> A              
     e( 27 - 27) =     17.73481  eV     1   --> A              
     e( 28 - 28) =     18.96112  eV     1   --> A              
     e( 29 - 29) =     19.63442  eV     1   --> A              
     e( 30 - 30) =     22.74174  eV     1   --> A              
     e( 31 - 31) =     22.81320  eV     1   --> A              
     e( 32 - 32) =     23.21354  eV     1   --> A              

 **************************************************************************

 **************************************************************************

                    xk=(  -0.14000,   0.24249,   0.00000  )

     Band symmetry, C_1 (1)     point group:

     e(  1 -  1) =    -18.69532  eV     1   --> A              
     e(  2 -  2) =    -18.51016  eV     1   --> A              
     e(  3 -  3) =     -7.30809  eV     1   --> A              
     e(  4 -  4) =     -7.27415  eV     1   --> A              
     e(  5 -  5) =     -7.01063  eV     1   --> A              
     e(  6 -  6) =     -6.11755  eV     1   --> A              
     e(  7 -  7) =     -6.09355  eV     1   --> A              
     e(  8 -  8) =     -5.90849  eV     1   --> A              
     e(  9 -  9) =      4.84030  eV     1   --> A              
     e( 10 - 10) =      5.22681  eV     1   --> A              
     e( 11 - 11) =      5.97508  eV     1   --> A              
     e( 12 - 12) =      6.87307  eV     1   --> A              
     e( 13 - 13) =      7.09327  eV     1   --> A              
     e( 14 - 14) =      7.15663  eV     1   --> A              
     e( 15 - 15) =      7.58747  eV     1   --> A              
     e( 16 - 16) =      8.87100  eV     1   --> A              
     e( 17 - 17) =      8.97445  eV     1   --> A              
     e( 18 - 18) =      9.47156  eV     1   --> A              
     e( 19 - 19) =      9.96373  eV     1   --> A              
     e( 20 - 20) =     10.52527  eV     1   --> A              
     e( 21 - 21) =     10.60963  eV     1   --> A              
     e( 22 - 22) =     12.30719  eV     1   --> A              
     e( 23 - 23) =     13.84745  eV     1   --> A              
     e( 24 - 24) =     15.23742  eV     1   --> A              
     e( 25 - 25) =     15.40769  eV     1   --> A              
     e( 26 - 26) =     16.48157  eV     1   --> A              
     e( 27 - 27) =     18.06807  eV     1   --> A              
     e( 28 - 28) =     18.82663  eV     1   --> A              
     e( 29 - 29) =     19.86604  eV     1   --> A              
     e( 30 - 30) =     22.70932  eV     1   --> A              
     e( 31 - 31) =     22.94274  eV     1   --> A              
     e( 32 - 32) =     23.45159  eV     1   --> A              

 **************************************************************************

 **************************************************************************

                    xk=(  -0.13333,   0.23094,   0.00000  )

     Band symmetry, C_1 (1)     point group:

     e(  1 -  1) =    -18.82286  eV     1   --> A              
     e(  2 -  2) =    -18.63621  eV     1   --> A              
     e(  3 -  3) =     -7.16360  eV     1   --> A              
     e(  4 -  4) =     -7.05880  eV     1   --> A              
     e(  5 -  5) =     -7.02778  eV     1   --> A              
     e(  6 -  6) =     -6.05268  eV     1   --> A              
     e(  7 -  7) =     -5.91826  eV     1   --> A              
     e(  8 -  8) =     -5.89520  eV     1   --> A              
     e(  9 -  9) =      4.66688  eV     1   --> A              
     e( 10 - 10) =      5.05287  eV     1   --> A              
     e( 11 - 11) =      5.79711  eV     1   --> A              
     e( 12 - 12) =      6.92619  eV     1   --> A              
     e( 13 - 13) =      7.16540  eV     1   --> A              
     e( 14 - 14) =      7.42227  eV     1   --> A              
     e( 15 - 15) =      7.43188  eV     1   --> A              
     e( 16 - 16) =      8.75588  eV     1   --> A              
     e( 17 - 17) =      8.84832  eV     1   --> A              
     e( 18 - 18) =      9.32335  eV     1   --> A              
     e( 19 - 19) =      9.79287  eV     1   --> A              
     e( 20 - 20) =     10.41160  eV     1   --> A              
     e( 21 - 21) =     10.48984  eV     1   --> A              
     e( 22 - 22) =     12.16035  eV     1   --> A              
     e( 23 - 23) =     13.68548  eV     1   --> A              
     e( 24 - 24) =     14.91292  eV     1   --> A              
     e( 25 - 25) =     15.07969  eV     1   --> A              
     e( 26 - 26) =     16.37327  eV     1   --> A              
     e( 27 - 27) =     18.33022  eV     1   --> A              
     e( 28 - 28) =     18.78760  eV     1   --> A              
     e( 29 - 29) =     20.11225  eV     1   --> A              
     e( 30 - 30) =     22.62284  eV     1   --> A              
     e( 31 - 31) =     23.07600  eV     1   --> A              
     e( 32 - 32) =     23.64189  eV     1   --> A              

 **************************************************************************

 **************************************************************************

                    xk=(  -0.12667,   0.21939,   0.00000  )

     Band symmetry, C_1 (1)     point group:

     e(  1 -  1) =    -18.94442  eV     1   --> A              
     e(  2 -  2) =    -18.75634  eV     1   --> A              
     e(  3 -  3) =     -7.30708  eV     1   --> A              
     e(  4 -  4) =     -6.81218  eV     1   --> A              
     e(  5 -  5) =     -6.78144  eV     1   --> A              
     e(  6 -  6) =     -6.19052  eV     1   --> A              
     e(  7 -  7) =     -5.72272  eV     1   --> A              
     e(  8 -  8) =     -5.70056  eV     1   --> A              
     e(  9 -  9) =      4.50181  eV     1   --> A              
     e( 10 - 10) =      4.88718  eV     1   --> A              
     e( 11 - 11) =      5.62778  eV     1   --> A              
     e( 12 - 12) =      6.75968  eV     1   --> A              
     e( 13 - 13) =      7.26388  eV     1   --> A              
     e( 14 - 14) =      7.45414  eV     1   --> A              
     e( 15 - 15) =      7.70943  eV     1   --> A              
     e( 16 - 16) =      8.64917  eV     1   --> A              
     e( 17 - 17) =      8.72961  eV     1   --> A              
     e( 18 - 18) =      9.18120  eV     1   --> A              
     e( 19 - 19) =      9.62983  eV     1   --> A              
     e( 20 - 20) =     10.29139  eV     1   --> A              
     e( 21 - 21) =     10.36374  eV     1   --> A              
     e( 22 - 22) =     12.01839  eV     1   --> A              
     e( 23 - 23) =     13.52954  eV     1   --> A              
     e( 24 - 24) =     14.59677  eV     1   --> A              
     e( 25 - 25) =     14.75994  eV     1   --> A              
     e( 26 - 26) =     16.26097  eV     1   --> A              
     e( 27 - 27) =     18.34894  eV     1   --> A              
     e( 28 - 28) =     19.01082  eV     1   --> A              
     e( 29 - 29) =     20.35795  eV     1   --> A              
     e( 30 - 30) =     22.56557  eV     1   --> A              
     e( 31 - 31) =     23.13916  eV     1   --> A              
     e( 32 - 32) =     23.78344  eV     1   --> A              

 **************************************************************************

 **************************************************************************

                    xk=(  -0.12000,   0.20785,   0.00000  )

     Band symmetry, C_1 (1)     point group:

     e(  1 -  1) =    -19.05991  eV     1   --> A              
     e(  2 -  2) =    -18.87048  eV     1   --> A              
     e(  3 -  3) =     -7.44448  eV     1   --> A              
     e(  4 -  4) =     -6.56526  eV     1   --> A              
     e(  5 -  5) =     -6.53595  eV     1   --> A              
     e(  6 -  6) =     -6.32164  eV     1   --> A              
     e(  7 -  7) =     -5.53151  eV     1   --> A              
     e(  8 -  8) =     -5.51025  eV     1   --> A              
     e(  9 -  9) =      4.34511  eV     1   --> A              
     e( 10 - 10) =      4.72980  eV     1   --> A              
     e( 11 - 11) =      5.46712  eV     1   --> A              
     e( 12 - 12) =      6.60131  eV     1   --> A              
     e( 13 - 13) =      7.11410  eV     1   --> A              
     e( 14 - 14) =      7.73589  eV     1   --> A              
     e( 15 - 15) =      7.97785  eV     1   --> A              
     e( 16 - 16) =      8.55398  eV     1   --> A              
     e( 17 - 17) =      8.61901  eV     1   --> A              
     e( 18 - 18) =      9.04555  eV     1   --> A              
     e( 19 - 19) =      9.47470  eV     1   --> A              
     e( 20 - 20) =     10.16380  eV     1   --> A              
     e( 21 - 21) =     10.23053  eV     1   --> A              
     e( 22 - 22) =     11.88188  eV     1   --> A              
     e( 23 - 23) =     13.38024  eV     1   --> A              
     e( 24 - 24) =     14.29252  eV     1   --> A              
     e( 25 - 25) =     14.45249  eV     1   --> A              
     e( 26 - 26) =     16.14732  eV     1   --> A              
     e( 27 - 27) =     18.24451  eV     1   --> A              
     e( 28 - 28) =     19.37268  eV     1   --> A              
     e( 29 - 29) =     20.58467  eV     1   --> A              
     e( 30 - 30) =     22.55225  eV     1   --> A              
     e( 31 - 31) =     23.14712  eV     1   --> A              
     e( 32 - 32) =     23.87031  eV     1   --> A              

 **************************************************************************

 **************************************************************************

                    xk=(  -0.11333,   0.19630,   0.00000  )

     Band symmetry, C_1 (1)     point group:

     e(  1 -  1) =    -19.16932  eV     1   --> A              
     e(  2 -  2) =    -18.97861  eV     1   --> A              
     e(  3 -  3) =     -7.57493  eV     1   --> A              
     e(  4 -  4) =     -6.44752  eV     1   --> A              
     e(  5 -  5) =     -6.31969  eV     1   --> A              
     e(  6 -  6) =     -6.29049  eV     1   --> A              
     e(  7 -  7) =     -5.34537  eV     1   --> A              
     e(  8 -  8) =     -5.32494  eV     1   --> A              
     e(  9 -  9) =      4.19680  eV     1   --> A              
     e( 10 - 10) =      4.58076  eV     1   --> A              
     e( 11 - 11) =      5.31514  eV     1   --> A              
     e( 12 - 12) =      6.45131  eV     1   --> A              
     e( 13 - 13) =      6.97197  eV     1   --> A              
     e( 14 - 14) =      8.00797  eV     1   --> A              
     e( 15 - 15) =      8.21729  eV     1   --> A              
     e( 16 - 16) =      8.48897  eV     1   --> A              
     e( 17 - 17) =      8.51896  eV     1   --> A              
     e( 18 - 18) =      8.91701  eV     1   --> A              
     e( 19 - 19) =      9.32756  eV     1   --> A              
     e( 20 - 20) =     10.02807  eV     1   --> A              
     e( 21 - 21) =     10.08949  eV     1   --> A              
     e( 22 - 22) =     11.75127  eV     1   --> A              
     e( 23 - 23) =     13.23798  eV     1   --> A              
     e( 24 - 24) =     14.00306  eV     1   --> A              
     e( 25 - 25) =     14.16039  eV     1   --> A              
     e( 26 - 26) =     16.03445  eV     1   --> A              
     e( 27 - 27) =     18.12073  eV     1   --> A              
     e( 28 - 28) =     19.76661  eV     1   --> A              
     e( 29 - 29) =     20.77125  eV     1   --> A              
     e( 30 - 30) =     22.60055  eV     1   --> A              
     e( 31 - 31) =     23.12172  eV     1   --> A              
     e( 32 - 32) =     23.84072  eV     1   --> A              

 **************************************************************************

 **************************************************************************

                    xk=(  -0.10667,   0.18475,   0.00000  )

     Band symmetry, C_1 (1)     point group:

     e(  1 -  1) =    -19.27262  eV     1   --> A              
[...]
     e(  8 -  8) =     -1.03578  eV     1   --> A              
     e(  9 -  9) =      0.07939  eV     1   --> A              
     e( 10 - 10) =      0.29992  eV     1   --> A              
     e( 11 - 11) =     10.16069  eV     1   --> A              
     e( 12 - 12) =     10.27321  eV     1   --> A              
     e( 13 - 13) =     11.83465  eV     1   --> A              
     e( 14 - 14) =     12.14117  eV     1   --> A              
     e( 15 - 15) =     12.14918  eV     1   --> A              
     e( 16 - 16) =     12.74856  eV     1   --> A              
     e( 17 - 17) =     13.28739  eV     1   --> A              
     e( 18 - 18) =     13.56561  eV     1   --> A              
     e( 19 - 19) =     13.97803  eV     1   --> A              
     e( 20 - 20) =     14.03551  eV     1   --> A              
     e( 21 - 21) =     14.78018  eV     1   --> A              
     e( 22 - 22) =     14.86640  eV     1   --> A              
     e( 23 - 23) =     15.06492  eV     1   --> A              
     e( 24 - 24) =     15.16165  eV     1   --> A              
     e( 25 - 25) =     15.94732  eV     1   --> A              
     e( 26 - 26) =     16.04745  eV     1   --> A              
     e( 27 - 27) =     16.33185  eV     1   --> A              
     e( 28 - 28) =     16.49944  eV     1   --> A              
     e( 29 - 29) =     16.94186  eV     1   --> A              
     e( 30 - 30) =     17.30247  eV     1   --> A              
     e( 31 - 31) =     17.51404  eV     1   --> A              
     e( 32 - 32) =     18.11234  eV     1   --> A              

 **************************************************************************

 **************************************************************************

                    xk=(  -0.28667,   0.57735,   0.00000  )

     Band symmetry, C_1 (1)     point group:

     e(  1 -  1) =    -13.54769  eV     1   --> A              
     e(  2 -  2) =    -13.47925  eV     1   --> A              
     e(  3 -  4) =    -12.84723  eV     2   -->   2 A              
     e(  5 -  5) =    -10.79280  eV     1   --> A              
     e(  6 -  6) =    -10.74123  eV     1   --> A              
     e(  7 -  7) =     -1.37390  eV     1   --> A              
     e(  8 -  8) =     -0.96096  eV     1   --> A              
     e(  9 -  9) =     -0.00358  eV     1   --> A              
     e( 10 - 10) =      0.24466  eV     1   --> A              
     e( 11 - 11) =     10.14015  eV     1   --> A              
     e( 12 - 12) =     10.23816  eV     1   --> A              
     e( 13 - 13) =     11.88973  eV     1   --> A              
     e( 14 - 14) =     12.18868  eV     1   --> A              
     e( 15 - 15) =     12.23140  eV     1   --> A              
     e( 16 - 16) =     12.86562  eV     1   --> A              
     e( 17 - 17) =     13.39927  eV     1   --> A              
     e( 18 - 18) =     13.62977  eV     1   --> A              
     e( 19 - 19) =     14.05349  eV     1   --> A              
     e( 20 - 20) =     14.11666  eV     1   --> A              
     e( 21 - 21) =     14.80725  eV     1   --> A              
     e( 22 - 22) =     14.91358  eV     1   --> A              
     e( 23 - 23) =     15.10861  eV     1   --> A              
     e( 24 - 24) =     15.19838  eV     1   --> A              
     e( 25 - 25) =     15.88290  eV     1   --> A              
     e( 26 - 26) =     15.90041  eV     1   --> A              
     e( 27 - 27) =     16.24917  eV     1   --> A              
     e( 28 - 28) =     16.46822  eV     1   --> A              
     e( 29 - 29) =     16.79794  eV     1   --> A              
     e( 30 - 30) =     17.32832  eV     1   --> A              
     e( 31 - 31) =     17.46467  eV     1   --> A              
     e( 32 - 32) =     18.02247  eV     1   --> A              

 **************************************************************************

 **************************************************************************

                    xk=(  -0.29333,   0.57735,   0.00000  )

     Band symmetry, C_1 (1)     point group:

     e(  1 -  1) =    -13.48956  eV     1   --> A              
     e(  2 -  2) =    -13.42149  eV     1   --> A              
     e(  3 -  3) =    -12.85524  eV     1   --> A              
     e(  4 -  4) =    -12.84711  eV     1   --> A              
     e(  5 -  5) =    -10.86311  eV     1   --> A              
     e(  6 -  6) =    -10.81766  eV     1   --> A              
     e(  7 -  7) =     -1.29647  eV     1   --> A              
     e(  8 -  8) =     -0.88562  eV     1   --> A              
     e(  9 -  9) =     -0.08836  eV     1   --> A              
     e( 10 - 10) =      0.18779  eV     1   --> A              
     e( 11 - 11) =     10.12306  eV     1   --> A              
     e( 12 - 12) =     10.20673  eV     1   --> A              
     e( 13 - 13) =     11.93564  eV     1   --> A              
     e( 14 - 14) =     12.23373  eV     1   --> A              
     e( 15 - 15) =     12.30633  eV     1   --> A              
     e( 16 - 16) =     12.96381  eV     1   --> A              
     e( 17 - 17) =     13.52021  eV     1   --> A              
     e( 18 - 18) =     13.69359  eV     1   --> A              
     e( 19 - 19) =     14.12918  eV     1   --> A              
     e( 20 - 20) =     14.19822  eV     1   --> A              
     e( 21 - 21) =     14.83164  eV     1   --> A              
     e( 22 - 22) =     14.95834  eV     1   --> A              
     e( 23 - 23) =     15.14968  eV     1   --> A              
     e( 24 - 24) =     15.22398  eV     1   --> A              
     e( 25 - 25) =     15.72055  eV     1   --> A              
     e( 26 - 26) =     15.82154  eV     1   --> A              
     e( 27 - 27) =     16.22061  eV     1   --> A              
     e( 28 - 28) =     16.38601  eV     1   --> A              
     e( 29 - 29) =     16.70623  eV     1   --> A              
     e( 30 - 30) =     17.36721  eV     1   --> A              
     e( 31 - 31) =     17.37452  eV     1   --> A              
     e( 32 - 32) =     17.96997  eV     1   --> A              

 **************************************************************************

 **************************************************************************

                    xk=(  -0.30000,   0.57735,   0.00000  )

     Band symmetry, C_1 (1)     point group:

     e(  1 -  1) =    -13.43021  eV     1   --> A              
     e(  2 -  2) =    -13.36248  eV     1   --> A              
     e(  3 -  3) =    -12.87206  eV     1   --> A              
     e(  4 -  4) =    -12.85510  eV     1   --> A              
     e(  5 -  5) =    -10.92297  eV     1   --> A              
     e(  6 -  6) =    -10.88447  eV     1   --> A              
     e(  7 -  7) =     -1.21881  eV     1   --> A              
     e(  8 -  8) =     -0.81036  eV     1   --> A              
     e(  9 -  9) =     -0.17435  eV     1   --> A              
     e( 10 - 10) =      0.12989  eV     1   --> A              
     e( 11 - 11) =     10.10958  eV     1   --> A              
     e( 12 - 12) =     10.17908  eV     1   --> A              
     e( 13 - 13) =     11.97452  eV     1   --> A              
     e( 14 - 14) =     12.27627  eV     1   --> A              
     e( 15 - 15) =     12.36966  eV     1   --> A              
     e( 16 - 16) =     13.04415  eV     1   --> A              
     e( 17 - 17) =     13.64511  eV     1   --> A              
     e( 18 - 18) =     13.75625  eV     1   --> A              
     e( 19 - 19) =     14.20483  eV     1   --> A              
     e( 20 - 20) =     14.27982  eV     1   --> A              
     e( 21 - 21) =     14.85429  eV     1   --> A              
     e( 22 - 22) =     15.00152  eV     1   --> A              
     e( 23 - 23) =     15.17952  eV     1   --> A              
     e( 24 - 24) =     15.22623  eV     1   --> A              
     e( 25 - 25) =     15.57058  eV     1   --> A              
     e( 26 - 26) =     15.74417  eV     1   --> A              
     e( 27 - 27) =     16.22675  eV     1   --> A              
     e( 28 - 28) =     16.24630  eV     1   --> A              
     e( 29 - 29) =     16.68205  eV     1   --> A              
     e( 30 - 30) =     17.25169  eV     1   --> A              
     e( 31 - 31) =     17.40527  eV     1   --> A              
     e( 32 - 32) =     17.95316  eV     1   --> A              

 **************************************************************************

 **************************************************************************

                    xk=(  -0.30667,   0.57735,   0.00000  )

     Band symmetry, C_1 (1)     point group:

     e(  1 -  1) =    -13.36966  eV     1   --> A              
     e(  2 -  2) =    -13.30229  eV     1   --> A              
     e(  3 -  3) =    -12.89841  eV     1   --> A              
     e(  4 -  4) =    -12.87201  eV     1   --> A              
     e(  5 -  5) =    -10.97161  eV     1   --> A              
     e(  6 -  6) =    -10.94062  eV     1   --> A              
     e(  7 -  7) =     -1.14186  eV     1   --> A              
     e(  8 -  8) =     -0.73623  eV     1   --> A              
     e(  9 -  9) =     -0.26050  eV     1   --> A              
     e( 10 - 10) =      0.07203  eV     1   --> A              
     e( 11 - 11) =     10.09981  eV     1   --> A              
     e( 12 - 12) =     10.15526  eV     1   --> A              
     e( 13 - 13) =     12.00741  eV     1   --> A              
     e( 14 - 14) =     12.31612  eV     1   --> A              
     e( 15 - 15) =     12.41827  eV     1   --> A              
     e( 16 - 16) =     13.10855  eV     1   --> A              
     e( 17 - 17) =     13.76666  eV     1   --> A              
     e( 18 - 18) =     13.81668  eV     1   --> A              
     e( 19 - 19) =     14.28021  eV     1   --> A              
     e( 20 - 20) =     14.36115  eV     1   --> A              
     e( 21 - 21) =     14.87425  eV     1   --> A              
     e( 22 - 22) =     15.04381  eV     1   --> A              
     e( 23 - 23) =     15.17425  eV     1   --> A              
     e( 24 - 24) =     15.19553  eV     1   --> A              
     e( 25 - 25) =     15.45467  eV     1   --> A              
     e( 26 - 26) =     15.70058  eV     1   --> A              
     e( 27 - 27) =     16.08890  eV     1   --> A              
     e( 28 - 28) =     16.24799  eV     1   --> A              
     e( 29 - 29) =     16.69019  eV     1   --> A              
     e( 30 - 30) =     17.11466  eV     1   --> A              
     e( 31 - 31) =     17.43511  eV     1   --> A              
     e( 32 - 32) =     17.95883  eV     1   --> A              

 **************************************************************************

 **************************************************************************

                    xk=(  -0.31333,   0.57735,   0.00000  )

     Band symmetry, C_1 (1)     point group:

     e(  1 -  1) =    -13.30810  eV     1   --> A              
     e(  2 -  2) =    -13.24105  eV     1   --> A              
     e(  3 -  3) =    -12.93466  eV     1   --> A              
     e(  4 -  4) =    -12.89848  eV     1   --> A              
     e(  5 -  5) =    -11.00845  eV     1   --> A              
     e(  6 -  6) =    -10.98539  eV     1   --> A              
     e(  7 -  7) =     -1.06745  eV     1   --> A              
     e(  8 -  8) =     -0.66508  eV     1   --> A              
     e(  9 -  9) =     -0.34490  eV     1   --> A              
     e( 10 - 10) =      0.01614  eV     1   --> A              
     e( 11 - 11) =     10.09380  eV     1   --> A              
     e( 12 - 12) =     10.13532  eV     1   --> A              
     e( 13 - 13) =     12.03461  eV     1   --> A              
     e( 14 - 14) =     12.35305  eV     1   --> A              
     e( 15 - 15) =     12.45021  eV     1   --> A              
     e( 16 - 16) =     13.15854  eV     1   --> A              
     e( 17 - 17) =     13.87350  eV     1   --> A              
     e( 18 - 18) =     13.87568  eV     1   --> A              
     e( 19 - 19) =     14.35505  eV     1   --> A              
     e( 20 - 20) =     14.44222  eV     1   --> A              
     e( 21 - 21) =     14.88554  eV     1   --> A              
     e( 22 - 22) =     15.07883  eV     1   --> A              
     e( 23 - 23) =     15.10507  eV     1   --> A              
     e( 24 - 24) =     15.14559  eV     1   --> A              
     e( 25 - 25) =     15.40211  eV     1   --> A              
     e( 26 - 26) =     15.69588  eV     1   --> A              
     e( 27 - 27) =     15.94132  eV     1   --> A              
     e( 28 - 28) =     16.27272  eV     1   --> A              
     e( 29 - 29) =     16.70944  eV     1   --> A              
     e( 30 - 30) =     16.98105  eV     1   --> A              
     e( 31 - 31) =     17.45158  eV     1   --> A              
     e( 32 - 32) =     17.97606  eV     1   --> A              

 **************************************************************************

 **************************************************************************

                    xk=(  -0.32000,   0.57735,   0.00000  )

     Band symmetry, C_1 (1)     point group:

     e(  1 -  1) =    -13.24590  eV     1   --> A              
     e(  2 -  2) =    -13.17909  eV     1   --> A              
     e(  3 -  3) =    -12.98050  eV     1   --> A              
     e(  4 -  4) =    -12.93456  eV     1   --> A              
     e(  5 -  5) =    -11.03328  eV     1   --> A              
     e(  6 -  6) =    -11.01820  eV     1   --> A              
     e(  7 -  7) =     -0.99944  eV     1   --> A              
     e(  8 -  8) =     -0.60047  eV     1   --> A              
     e(  9 -  9) =     -0.42359  eV     1   --> A              
     e( 10 - 10) =     -0.03425  eV     1   --> A              
     e( 11 - 11) =     10.09154  eV     1   --> A              
     e( 12 - 12) =     10.11922  eV     1   --> A              
     e( 13 - 13) =     12.05580  eV     1   --> A              
     e( 14 - 14) =     12.38678  eV     1   --> A              
     e( 15 - 15) =     12.46462  eV     1   --> A              
     e( 16 - 16) =     13.19478  eV     1   --> A              
     e( 17 - 17) =     13.92497  eV     1   --> A              
     e( 18 - 18) =     13.96042  eV     1   --> A              
     e( 19 - 19) =     14.42878  eV     1   --> A              
     e( 20 - 20) =     14.52360  eV     1   --> A              
     e( 21 - 21) =     14.87593  eV     1   --> A              
     e( 22 - 22) =     14.96659  eV     1   --> A              
     e( 23 - 23) =     15.11417  eV     1   --> A              
     e( 24 - 24) =     15.12897  eV     1   --> A              
     e( 25 - 25) =     15.38340  eV     1   --> A              
     e( 26 - 26) =     15.71319  eV     1   --> A              
     e( 27 - 27) =     15.82408  eV     1   --> A              
     e( 28 - 28) =     16.29207  eV     1   --> A              
     e( 29 - 29) =     16.73078  eV     1   --> A              
     e( 30 - 30) =     16.86752  eV     1   --> A              
     e( 31 - 31) =     17.45388  eV     1   --> A              
     e( 32 - 32) =     17.99816  eV     1   --> A              

 **************************************************************************

 **************************************************************************

                    xk=(  -0.32667,   0.57735,   0.00000  )

     Band symmetry, C_1 (1)     point group:

     e(  1 -  1) =    -13.18480  eV     1   --> A              
     e(  2 -  2) =    -13.11796  eV     1   --> A              
     e(  3 -  3) =    -13.03394  eV     1   --> A              
     e(  4 -  4) =    -12.97877  eV     1   --> A              
     e(  5 -  5) =    -11.04637  eV     1   --> A              
     e(  6 -  6) =    -11.03907  eV     1   --> A              
     e(  7 -  7) =     -0.94636  eV     1   --> A              
     e(  8 -  8) =     -0.54911  eV     1   --> A              
     e(  9 -  9) =     -0.48795  eV     1   --> A              
     e( 10 - 10) =     -0.07238  eV     1   --> A              
     e( 11 - 11) =     10.09299  eV     1   --> A              
     e( 12 - 12) =     10.10689  eV     1   --> A              
     e( 13 - 13) =     12.07000  eV     1   --> A              
     e( 14 - 14) =     12.41700  eV     1   --> A              
     e( 15 - 15) =     12.46185  eV     1   --> A              
     e( 16 - 16) =     13.21715  eV     1   --> A              
     e( 17 - 17) =     13.96899  eV     1   --> A              
     e( 18 - 18) =     14.00667  eV     1   --> A              
     e( 19 - 19) =     14.49897  eV     1   --> A              
     e( 20 - 20) =     14.60660  eV     1   --> A              
     e( 21 - 21) =     14.82158  eV     1   --> A              
     e( 22 - 22) =     14.84962  eV     1   --> A              
     e( 23 - 23) =     15.12223  eV     1   --> A              
     e( 24 - 24) =     15.15967  eV     1   --> A              
     e( 25 - 25) =     15.35596  eV     1   --> A              
     e( 26 - 26) =     15.73299  eV     1   --> A              
     e( 27 - 27) =     15.75666  eV     1   --> A              
     e( 28 - 28) =     16.29938  eV     1   --> A              
     e( 29 - 29) =     16.74897  eV     1   --> A              
     e( 30 - 30) =     16.79094  eV     1   --> A              
     e( 31 - 31) =     17.44800  eV     1   --> A              
     e( 32 - 32) =     18.02085  eV     1   --> A              

 **************************************************************************

 **************************************************************************

                    xk=(  -0.33333,   0.57735,   0.00000  )

     Band symmetry, C_1 (1)     point group:

     e(  1 -  1) =    -13.14396  eV     1   --> A              
     e(  2 -  3) =    -13.07524  eV     2   -->   2 A              
     e(  4 -  4) =    -13.01316  eV     1   --> A              
     e(  5 -  6) =    -11.04832  eV     2   -->   2 A              
     e(  7 -  7) =     -0.92452  eV     1   --> A              
     e(  8 -  8) =     -0.52163  eV     1   --> A              
     e(  9 -  9) =     -0.52152  eV     1   --> A              
     e( 10 - 10) =     -0.08750  eV     1   --> A              
     e( 11 - 11) =     10.09807  eV     1   --> A              
     e( 12 - 12) =     10.09822  eV     1   --> A              
     e( 13 - 13) =     12.07533  eV     1   --> A              
     e( 14 - 14) =     12.44341  eV     1   --> A              
     e( 15 - 15) =     12.44389  eV     1   --> A              
     e( 16 - 16) =     13.22485  eV     1   --> A              
     e( 17 - 17) =     14.00311  eV     1   --> A              
     e( 18 - 18) =     14.00351  eV     1   --> A              
     e( 19 - 19) =     14.54439  eV     1   --> A              
     e( 20 - 20) =     14.69222  eV     1   --> A              
     e( 21 - 21) =     14.69245  eV     1   --> A              
     e( 22 - 22) =     14.83584  eV     1   --> A              
     e( 23 - 23) =     15.15390  eV     1   --> A              
     e( 24 - 24) =     15.15422  eV     1   --> A              
     e( 25 - 25) =     15.33539  eV     1   --> A              
     e( 26 - 26) =     15.73976  eV     1   --> A              
     e( 27 - 27) =     15.74021  eV     1   --> A              
     e( 28 - 28) =     16.29827  eV     1   --> A              
     e( 29 - 29) =     16.76060  eV     1   --> A              
     e( 30 - 30) =     16.76088  eV     1   --> A              
     e( 31 - 31) =     17.44398  eV     1   --> A              
     e( 32 - 32) =     18.04070  eV     1   --> A              

 **************************************************************************
