
     Program PWSCF v.5.1 starts on  4Apr2020 at 22:25:20 

     This program is part of the open-source Quantum ESPRESSO suite
     for quantum simulation of materials; please cite
         "P. Giannozzi et al., J. Phys.:Condens. Matter 21 395502 (2009);
          URL http://www.quantum-espresso.org", 
     in publications or presentations arising from this work. More details at
     http://www.quantum-espresso.org/quote

     Parallel version (MPI), running on     1 processors
     Waiting for input...
     Reading input from standard input

     Current dimensions of program PWSCF are:
     Max number of different atomic species (ntypx) = 10
     Max number of k-points (npk) =  40000
     Max angular momentum in pseudopotentials (lmaxx) =  3

     IMPORTANT: XC functional enforced from input :
     Exchange-correlation      = PBE ( 1  4  3  4 0)
     Any further DFT definition will be discarded
     Please, verify this is what you really want

               file C.pbe-rrkjus.UPF: wavefunction(s)  2S 2P renormalized

     Subspace diagonalization in iterative solution of the eigenvalue problem:
     a serial algorithm will be used


     G-vector sticks info
     --------------------
     sticks:   dense  smooth     PW     G-vecs:    dense   smooth      PW
     Sum         595     241     85                96043    24369    4587


     Title: 
     graphene                                                                   


     bravais-lattice index     =           12
     lattice parameter (alat)  =       4.6627  a.u.
     unit-cell volume          =     711.6007 (a.u.)^3
     number of atoms/cell      =            4
     number of atomic types    =            1
     number of electrons       =        16.00
     number of Kohn-Sham states=           12
     kinetic-energy cutoff     =      40.0000  Ry
     charge density cutoff     =     400.0000  Ry
     convergence threshold     =      1.0E-10
     mixing beta               =       0.3000
     number of iterations used =            8  plain     mixing
     Exchange-correlation      = PBE ( 1  4  3  4 0)

     celldm(1)=   4.662710  celldm(2)=   1.000000  celldm(3)=   8.105698
     celldm(4)=  -0.500000  celldm(5)=   0.000000  celldm(6)=   0.000000

     crystal axes: (cart. coord. in units of alat)
               a(1) = (   1.000000   0.000000   0.000000 )  
               a(2) = (  -0.500000   0.866025   0.000000 )  
               a(3) = (   0.000000   0.000000   8.105698 )  

     reciprocal axes: (cart. coord. in units 2 pi/alat)
               b(1) = (  1.000000  0.577350 -0.000000 )  
               b(2) = (  0.000000  1.154701  0.000000 )  
               b(3) = (  0.000000 -0.000000  0.123370 )  


     PseudoPot. # 1 for C  read from file:
     ../pseudo/C.pbe-rrkjus.UPF
     MD5 check sum: 00fb224312de0c5b6853bd333518df6f
     Pseudo is Ultrasoft, Zval =  4.0
     Generated by new atomic code, or converted to UPF format
     Using radial grid of  627 points,  4 beta functions with: 
                l(1) =   0
                l(2) =   0
                l(3) =   1
                l(4) =   1
     Q(r) pseudized with 0 coefficients 


     atomic species   valence    mass     pseudopotential
        C              4.00    12.01100     C ( 1.00)

      2 Sym. Ops. (no inversion) found
          (note:  2 additional sym.ops. were found but ignored
           their fractional translations are incommensurate with FFT grid)

                                    s                        frac. trans.

      isym =  1     identity                                     

 cryst.   s( 1) = (     1          0          0      )
                  (     0          1          0      )
                  (     0          0          1      )

 cart.    s( 1) = (  1.0000000  0.0000000  0.0000000 )
                  (  0.0000000  1.0000000  0.0000000 )
                  (  0.0000000  0.0000000  1.0000000 )


      isym =  2     inv. 180 deg rotation - cart. axis [1,0,0]   

 cryst.   s( 2) = (    -1          0          0      )
                  (     1          1          0      )
                  (     0          0          1      )

 cart.    s( 2) = ( -1.0000000  0.0000000  0.0000000 )
                  (  0.0000000  1.0000000  0.0000000 )
                  (  0.0000000  0.0000000  1.0000000 )


     point group C_s (m)    
     there are  2 classes
     the character table:

       E     s    
A'     1.00  1.00
A''    1.00 -1.00

     the symmetry operations in each class:
     E        1
     s        2

   Cartesian axes

     site n.     atom                  positions (alat units)
         1           C   tau(   1) = (   0.0000000   0.0000000   2.0264246  )
         2           C   tau(   2) = (   0.0000000   0.5773284   2.0264246  )
         3           C   tau(   3) = (   0.0000000   1.1546567   3.3354949  )
         4           C   tau(   4) = (   0.0000000   0.5773284   3.3354949  )

   Crystallographic axes

     site n.     atom                  positions (cryst. coord.)
         1           C   tau(   1) = (  0.0000000  0.0000000  0.2500000  )
         2           C   tau(   2) = (  0.3333207  0.6666414  0.2500000  )
         3           C   tau(   3) = (  0.6666414  1.3332827  0.4115000  )
         4           C   tau(   4) = (  0.3333207  0.6666414  0.4115000  )

     number of k points=    43  Marzari-Vanderbilt smearing, width (Ry)=  0.0001
                       cart. coord. in units 2pi/alat
        k(    1) = (   0.0000000   0.0000000   0.0000000), wk =   0.0138889
        k(    2) = (   0.0000000   0.0962250   0.0000000), wk =   0.0277778
        k(    3) = (   0.0000000   0.1924501   0.0000000), wk =   0.0277778
        k(    4) = (   0.0000000   0.2886751   0.0000000), wk =   0.0277778
        k(    5) = (   0.0000000   0.3849002   0.0000000), wk =   0.0277778
        k(    6) = (   0.0000000   0.4811252   0.0000000), wk =   0.0277778
        k(    7) = (   0.0000000  -0.5773503   0.0000000), wk =   0.0138889
        k(    8) = (   0.0833333   0.1443376   0.0000000), wk =   0.0555556
        k(    9) = (   0.0833333   0.2405626   0.0000000), wk =   0.0555556
        k(   10) = (   0.0833333   0.3367877   0.0000000), wk =   0.0555556
        k(   11) = (   0.0833333   0.4330127   0.0000000), wk =   0.0555556
        k(   12) = (   0.0833333   0.5292377   0.0000000), wk =   0.0555556
        k(   13) = (   0.1666667   0.2886751   0.0000000), wk =   0.0555556
        k(   14) = (   0.1666667   0.3849002   0.0000000), wk =   0.0555556
        k(   15) = (   0.1666667   0.4811252   0.0000000), wk =   0.0555556
        k(   16) = (   0.1666667   0.5773503   0.0000000), wk =   0.0277778
        k(   17) = (   0.2500000   0.4330127   0.0000000), wk =   0.0555556
        k(   18) = (   0.2500000   0.5292377   0.0000000), wk =   0.0555556
        k(   19) = (   0.3333333   0.5773503   0.0000000), wk =   0.0277778
        k(   20) = (  -0.0833333   0.0481125   0.0000000), wk =   0.0555556
        k(   21) = (  -0.1666667   0.0962250   0.0000000), wk =   0.0555556
        k(   22) = (  -0.2500000   0.1443376   0.0000000), wk =   0.0555556
        k(   23) = (  -0.3333333   0.1924501   0.0000000), wk =   0.0555556
        k(   24) = (  -0.4166667   0.2405626   0.0000000), wk =   0.0555556
        k(   25) = (   0.5000000  -0.2886751   0.0000000), wk =   0.0277778
        k(   26) = (   0.1666667  -0.0000000   0.0000000), wk =   0.0277778
        k(   27) = (  -0.1666667   0.1924501   0.0000000), wk =   0.0555556
        k(   28) = (   0.2500000   0.0481125   0.0000000), wk =   0.0555556
        k(   29) = (  -0.2500000   0.2405626   0.0000000), wk =   0.0555556
        k(   30) = (   0.3333333   0.0962250   0.0000000), wk =   0.0555556
        k(   31) = (  -0.3333333   0.2886751   0.0000000), wk =   0.0555556
        k(   32) = (   0.4166667   0.1443376   0.0000000), wk =   0.0555556
        k(   33) = (  -0.4166667   0.3367877   0.0000000), wk =   0.0555556
        k(   34) = (   0.5000000   0.1924501   0.0000000), wk =   0.0555556
        k(   35) = (   0.3333333  -0.0000000   0.0000000), wk =   0.0277778
        k(   36) = (  -0.2500000   0.3367877   0.0000000), wk =   0.0555556
        k(   37) = (   0.4166667   0.0481125   0.0000000), wk =   0.0555556
        k(   38) = (  -0.3333333   0.3849002   0.0000000), wk =   0.0555556
        k(   39) = (   0.5000000   0.0962250   0.0000000), wk =   0.0555556
        k(   40) = (  -0.4166667   0.4330127   0.0000000), wk =   0.0555556
        k(   41) = (   0.5000000   0.0000000   0.0000000), wk =   0.0277778
        k(   42) = (  -0.3333333   0.4811252   0.0000000), wk =   0.0555556
        k(   43) = (   0.5833333   0.0481125   0.0000000), wk =   0.0555556

                       cryst. coord.
        k(    1) = (   0.0000000   0.0000000   0.0000000), wk =   0.0138889
        k(    2) = (   0.0000000   0.0833333   0.0000000), wk =   0.0277778
        k(    3) = (   0.0000000   0.1666667   0.0000000), wk =   0.0277778
        k(    4) = (   0.0000000   0.2500000   0.0000000), wk =   0.0277778
        k(    5) = (   0.0000000   0.3333333   0.0000000), wk =   0.0277778
        k(    6) = (   0.0000000   0.4166667   0.0000000), wk =   0.0277778
        k(    7) = (   0.0000000  -0.5000000   0.0000000), wk =   0.0138889
        k(    8) = (   0.0833333   0.0833333   0.0000000), wk =   0.0555556
        k(    9) = (   0.0833333   0.1666667   0.0000000), wk =   0.0555556
        k(   10) = (   0.0833333   0.2500000   0.0000000), wk =   0.0555556
        k(   11) = (   0.0833333   0.3333333   0.0000000), wk =   0.0555556
        k(   12) = (   0.0833333   0.4166667   0.0000000), wk =   0.0555556
        k(   13) = (   0.1666667   0.1666667   0.0000000), wk =   0.0555556
        k(   14) = (   0.1666667   0.2500000   0.0000000), wk =   0.0555556
        k(   15) = (   0.1666667   0.3333333   0.0000000), wk =   0.0555556
        k(   16) = (   0.1666667   0.4166667   0.0000000), wk =   0.0277778
        k(   17) = (   0.2500000   0.2500000   0.0000000), wk =   0.0555556
        k(   18) = (   0.2500000   0.3333333   0.0000000), wk =   0.0555556
        k(   19) = (   0.3333333   0.3333333   0.0000000), wk =   0.0277778
        k(   20) = (  -0.0833333   0.0833333   0.0000000), wk =   0.0555556
        k(   21) = (  -0.1666667   0.1666667   0.0000000), wk =   0.0555556
        k(   22) = (  -0.2500000   0.2500000   0.0000000), wk =   0.0555556
        k(   23) = (  -0.3333333   0.3333333   0.0000000), wk =   0.0555556
        k(   24) = (  -0.4166667   0.4166667   0.0000000), wk =   0.0555556
        k(   25) = (   0.5000000  -0.5000000   0.0000000), wk =   0.0277778
        k(   26) = (   0.1666667  -0.0833333   0.0000000), wk =   0.0277778
        k(   27) = (  -0.1666667   0.2500000   0.0000000), wk =   0.0555556
        k(   28) = (   0.2500000  -0.0833333   0.0000000), wk =   0.0555556
        k(   29) = (  -0.2500000   0.3333333   0.0000000), wk =   0.0555556
        k(   30) = (   0.3333333  -0.0833333   0.0000000), wk =   0.0555556
        k(   31) = (  -0.3333333   0.4166667   0.0000000), wk =   0.0555556
        k(   32) = (   0.4166667  -0.0833333   0.0000000), wk =   0.0555556
        k(   33) = (  -0.4166667   0.5000000   0.0000000), wk =   0.0555556
        k(   34) = (   0.5000000  -0.0833333   0.0000000), wk =   0.0555556
        k(   35) = (   0.3333333  -0.1666667   0.0000000), wk =   0.0277778
        k(   36) = (  -0.2500000   0.4166667   0.0000000), wk =   0.0555556
        k(   37) = (   0.4166667  -0.1666667   0.0000000), wk =   0.0555556
        k(   38) = (  -0.3333333   0.5000000   0.0000000), wk =   0.0555556
        k(   39) = (   0.5000000  -0.1666667   0.0000000), wk =   0.0555556
        k(   40) = (  -0.4166667   0.5833333   0.0000000), wk =   0.0555556
        k(   41) = (   0.5000000  -0.2500000   0.0000000), wk =   0.0277778
        k(   42) = (  -0.3333333   0.5833333   0.0000000), wk =   0.0555556
        k(   43) = (   0.5833333  -0.2500000   0.0000000), wk =   0.0555556

     Dense  grid:    96043 G-vectors     FFT dimensions: (  30,  30, 243)

     Smooth grid:    24369 G-vectors     FFT dimensions: (  20,  20, 160)

     Largest allocated arrays     est. size (Mb)     dimensions
        Kohn-Sham Wavefunctions         0.56 Mb     (    3054,   12)
        NL pseudopotentials             1.49 Mb     (    3054,   32)
        Each V/rho on FFT grid          3.34 Mb     (  218700)
        Each G-vector array             0.73 Mb     (   96043)
        G-vector shells                 0.04 Mb     (    4763)
     Largest temporary arrays     est. size (Mb)     dimensions
        Auxiliary wavefunctions         2.24 Mb     (    3054,   48)
        Each subspace H/S matrix        0.04 Mb     (      48,   48)
        Each <psi_i|beta_j> matrix      0.01 Mb     (      32,   12)
        Arrays for rho mixing          26.70 Mb     (  218700,    8)

     Initial potential from superposition of free atoms

     starting charge   15.99979, renormalised to   16.00000

     negative rho (up, down):  1.074E-05 0.000E+00
     Starting wfc are   16 randomized atomic wfcs

     total cpu time spent up to now is        3.5 secs

     per-process dynamical memory:    67.0 Mb

     Self-consistent Calculation

     iteration #  1     ecut=    40.00 Ry     beta=0.30
     Davidson diagonalization with overlap
     ethr =  1.00E-02,  avg # of iterations =  2.8

     negative rho (up, down):  6.564E-06 0.000E+00

     total cpu time spent up to now is       10.4 secs

          k = 0.0000 0.0000 0.0000     band energies (ev):

   -23.9047 -23.7548 -11.4247 -10.4702  -8.1719  -8.1700  -8.1621  -8.1602
     3.6778   3.6801   3.7037   3.7059

     occupation numbers 
     1.0000   1.0000   1.0000   1.0000   1.0000   1.0000   1.0000   1.0000
     0.0000   0.0000   0.0000   0.0000

          k = 0.0000 0.0962 0.0000     band energies (ev):

   -23.7453 -23.5971 -11.2319 -10.2844  -8.7687  -8.7517  -8.4833  -8.4686
     3.7899   3.8371   4.3346   4.3603

     occupation numbers 
     1.0000   1.0000   1.0000   1.0000   1.0000   1.0000   1.0000   1.0000
     0.0000   0.0000   0.0000   0.0000

          k = 0.0000 0.1925 0.0000     band energies (ev):

   -23.2694 -23.1258 -10.6593 -10.2895 -10.2575  -9.7333  -9.2240  -9.2033
     3.8599   3.9750   5.0974   5.2812

     occupation numbers 
     1.0000   1.0000   1.0000   1.0000   1.0000   1.0000   1.0000   1.0000
     0.0000   0.0000   0.0000   0.0000

          k = 0.0000 0.2887 0.0000     band energies (ev):

   -22.4835 -22.3471 -12.2653 -12.2161 -10.0574 -10.0326  -9.7260  -8.8410
     3.1162   3.3909   3.6682   3.7626

     occupation numbers 
     1.0000   1.0000   1.0000   1.0000   1.0000   1.0000   1.0000   1.0000
     0.0000   0.0000   0.0000   0.0000

          k = 0.0000 0.3849 0.0000     band energies (ev):

   -21.3999 -21.2739 -14.3602 -14.2939 -10.7584 -10.7312  -8.4800  -7.6685
     0.9251   1.3320   3.3895   3.5470

     occupation numbers 
     1.0000   1.0000   1.0000   1.0000   1.0000   1.0000   1.0000   1.0000
     0.0000   0.0000   0.0000   0.0000

          k = 0.0000 0.4811 0.0000     band energies (ev):

   -20.0520 -19.9399 -16.3667 -16.2862 -11.2130 -11.1846  -7.0672  -6.4168
    -1.0660  -0.6213   3.2002   3.3733

     occupation numbers 
     1.0000   1.0000   1.0000   1.0000   1.0000   1.0000   1.0000   1.0000
     0.0000   0.0000   0.0000   0.0000

          k = 0.0000-0.5774 0.0000     band energies (ev):

   -18.8337 -18.7774 -17.7648 -17.7233 -11.3695 -11.3405  -6.1624  -5.8111
    -1.9744  -1.6784   3.1173   3.3114

     occupation numbers 
     1.0000   1.0000   1.0000   1.0000   1.0000   1.0000   1.0000   1.0000
     0.0000   0.0000   0.0000   0.0000

          k = 0.0833 0.1443 0.0000     band energies (ev):

   -23.4281 -23.2826 -10.8494  -9.9160  -9.7272  -9.7105  -9.1016  -9.0893
     3.2810   4.1264   4.1843   5.5611

     occupation numbers 
     1.0000   1.0000   1.0000   1.0000   1.0000   1.0000   1.0000   1.0000
     0.0000   0.0000   0.0000   0.0000

          k = 0.0833 0.2406 0.0000     band energies (ev):

   -22.7967 -22.6576 -11.3342 -11.3001 -10.0948 -10.0343 -10.0121  -9.1925
     3.9131   4.1159   4.4525   4.5776

     occupation numbers 
     1.0000   1.0000   1.0000   1.0000   1.0000   1.0000   1.0000   1.0000
     0.0000   0.0000   0.0000   0.0000

          k = 0.0833 0.3368 0.0000     band energies (ev):

   -21.8619 -21.7315 -13.2958 -13.2412 -10.8790 -10.8492  -8.9995  -8.1517
     1.8841   2.2019   4.1856   4.3217

     occupation numbers 
     1.0000   1.0000   1.0000   1.0000   1.0000   1.0000   1.0000   1.0000
     0.0000   0.0000   0.0000   0.0000

          k = 0.0833 0.4330 0.0000     band energies (ev):

   -20.6430 -20.5244 -15.3183 -15.2462 -11.4891 -11.4558  -7.6410  -6.8962
    -0.2084   0.2041   3.9462   4.1268

     occupation numbers 
     1.0000   1.0000   1.0000   1.0000   1.0000   1.0000   1.0000   1.0000
     0.0000   0.0000   0.0000   0.0000

          k = 0.0833 0.5292 0.0000     band energies (ev):

   -19.2186 -19.1212 -17.1663 -17.0876 -11.8060 -11.7713  -6.3092  -5.8214
    -1.7879  -1.4436   3.7957   3.9956

     occupation numbers 
     1.0000   1.0000   1.0000   1.0000   1.0000   1.0000   1.0000   1.0000
     0.0000   0.0000   0.0000   0.0000

          k = 0.1667 0.2887 0.0000     band energies (ev):

   -22.0162 -21.8849 -12.6012 -12.5736 -11.2834 -11.2637  -9.1750  -8.3153
     2.2996   2.5337   6.7359   6.8920

     occupation numbers 
     1.0000   1.0000   1.0000   1.0000   1.0000   1.0000   1.0000   1.0000
     0.0000   0.0000   0.0000   0.0000

          k = 0.1667 0.3849 0.0000     band energies (ev):

   -20.9449 -20.8234 -14.2454 -14.1942 -12.2886 -12.2535  -7.9446  -7.1582
     0.4417   0.7382   5.8716   5.9456

     occupation numbers 
     1.0000   1.0000   1.0000   1.0000   1.0000   1.0000   1.0000   1.0000
     0.0000   0.0000   0.0000   0.0000

          k = 0.1667 0.4811 0.0000     band energies (ev):

   -19.6182 -19.5107 -16.0631 -15.9907 -12.8490 -12.8045  -6.5305  -5.8907
    -1.3574  -1.0164   5.5939   5.8288

     occupation numbers 
     1.0000   1.0000   1.0000   1.0000   1.0000   1.0000   1.0000   1.0000
     0.0000   0.0000   0.0000   0.0000

          k = 0.1667 0.5774 0.0000     band energies (ev):

   -18.4294 -18.3754 -17.3909 -17.3548 -13.0294 -12.9827  -5.5796  -5.2345
    -2.2075  -2.0864   5.4890   5.7297

     occupation numbers 
     1.0000   1.0000   1.0000   1.0000   1.0000   1.0000   1.0000   1.0000
     0.0000   0.0000   0.0000   0.0000

          k = 0.2500 0.4330 0.0000     band energies (ev):

   -19.7597 -19.6503 -15.2425 -15.2042 -13.6555 -13.6281  -6.6228  -5.9334
    -1.1144  -0.8199   8.1050   8.2601

     occupation numbers 
     1.0000   1.0000   1.0000   1.0000   1.0000   1.0000   1.0000   1.0000
     0.0000   0.0000   0.0000   0.0000

          k = 0.2500 0.5292 0.0000     band energies (ev):

   -18.3948 -18.3057 -16.5926 -16.5336 -14.3406 -14.2951  -5.2307  -4.7396
    -2.5315  -2.2677   7.7110   8.0606

     occupation numbers 
     1.0000   1.0000   1.0000   1.0000   1.0000   1.0000   1.0000   1.0000
     0.0000   0.0000   0.0000   0.0000

          k = 0.3333 0.5774 0.0000     band energies (ev):

   -17.2460 -17.1982 -17.1980 -17.1506 -15.1305 -15.1287  -4.0037  -3.6857
    -3.6855  -3.3428   8.3093   9.7103

     occupation numbers 
     1.0000   1.0000   1.0000   1.0000   1.0000   1.0000   1.0000   0.5696
     0.4304   0.0000   0.0000   0.0000

          k =-0.0833 0.0481 0.0000     band energies (ev):

   -23.7453 -23.5971 -11.2321 -10.2844  -8.7675  -8.7504  -8.4845  -8.4699
     3.7881   3.8324   4.3360   4.3622

     occupation numbers 
     1.0000   1.0000   1.0000   1.0000   1.0000   1.0000   1.0000   1.0000
     0.0000   0.0000   0.0000   0.0000

          k =-0.1667 0.0962 0.0000     band energies (ev):

   -23.2694 -23.1258 -10.6594 -10.2885 -10.2566  -9.7334  -9.2251  -9.2043
     3.8632   3.9803   5.1012   5.2874

     occupation numbers 
     1.0000   1.0000   1.0000   1.0000   1.0000   1.0000   1.0000   1.0000
     0.0000   0.0000   0.0000   0.0000

          k =-0.2500 0.1443 0.0000     band energies (ev):

   -22.4834 -22.3471 -12.2646 -12.2153 -10.0583 -10.0335  -9.7260  -8.8409
     3.1166   3.3931   3.7067   3.7593

     occupation numbers 
     1.0000   1.0000   1.0000   1.0000   1.0000   1.0000   1.0000   1.0000
     0.0000   0.0000   0.0000   0.0000

          k =-0.3333 0.1925 0.0000     band energies (ev):

   -21.4000 -21.2738 -14.3596 -14.2933 -10.7592 -10.7321  -8.4800  -7.6687
     0.9260   1.3324   3.3889   3.5472

     occupation numbers 
     1.0000   1.0000   1.0000   1.0000   1.0000   1.0000   1.0000   1.0000
     0.0000   0.0000   0.0000   0.0000

          k =-0.4167 0.2406 0.0000     band energies (ev):

   -20.0520 -19.9400 -16.3662 -16.2856 -11.2137 -11.1852  -7.0676  -6.4172
    -1.0653  -0.6205   3.1999   3.3723

     occupation numbers 
     1.0000   1.0000   1.0000   1.0000   1.0000   1.0000   1.0000   1.0000
     0.0000   0.0000   0.0000   0.0000

          k = 0.5000-0.2887 0.0000     band energies (ev):

   -18.8341 -18.7778 -17.7639 -17.7223 -11.3702 -11.3412  -6.1631  -5.8117
    -1.9734  -1.6773   3.1173   3.3110

     occupation numbers 
     1.0000   1.0000   1.0000   1.0000   1.0000   1.0000   1.0000   1.0000
     0.0000   0.0000   0.0000   0.0000

          k = 0.1667-0.0000 0.0000     band energies (ev):

   -23.4277 -23.2826 -10.8491  -9.9161  -9.7260  -9.7093  -9.1028  -9.0905
     4.1228   4.1962   5.5605   5.7108

     occupation numbers 
     1.0000   1.0000   1.0000   1.0000   1.0000   1.0000   1.0000   1.0000
     0.0000   0.0000   0.0000   0.0000

          k =-0.1667 0.1925 0.0000     band energies (ev):

   -22.7966 -22.6576 -11.3336 -11.2996 -10.0950 -10.0348 -10.0127  -9.1925
     3.9115   4.1156   4.4483   4.5722

     occupation numbers 
     1.0000   1.0000   1.0000   1.0000   1.0000   1.0000   1.0000   1.0000
     0.0000   0.0000   0.0000   0.0000

          k = 0.2500 0.0481 0.0000     band energies (ev):

   -22.7967 -22.6576 -11.3331 -11.2990 -10.0950 -10.0355 -10.0133  -9.1924
     3.9127   4.1155   4.4505   4.5744

     occupation numbers 
     1.0000   1.0000   1.0000   1.0000   1.0000   1.0000   1.0000   1.0000
     0.0000   0.0000   0.0000   0.0000

          k =-0.2500 0.2406 0.0000     band energies (ev):

   -21.8618 -21.7314 -13.2953 -13.2407 -10.8797 -10.8499  -8.9995  -8.1518
     1.8842   2.2022   4.1839   4.3199

     occupation numbers 
     1.0000   1.0000   1.0000   1.0000   1.0000   1.0000   1.0000   1.0000
     0.0000   0.0000   0.0000   0.0000

          k = 0.3333 0.0962 0.0000     band energies (ev):

   -21.8618 -21.7314 -13.2951 -13.2405 -10.8800 -10.8501  -8.9997  -8.1518
     1.8847   2.2027   4.1825   4.3179

     occupation numbers 
     1.0000   1.0000   1.0000   1.0000   1.0000   1.0000   1.0000   1.0000
     0.0000   0.0000   0.0000   0.0000

          k =-0.3333 0.2887 0.0000     band energies (ev):

   -20.6429 -20.5244 -15.3178 -15.2457 -11.4897 -11.4564  -7.6411  -6.8964
    -0.2077   0.2043   3.9452   4.1261

     occupation numbers 
     1.0000   1.0000   1.0000   1.0000   1.0000   1.0000   1.0000   1.0000
     0.0000   0.0000   0.0000   0.0000

          k = 0.4167 0.1443 0.0000     band energies (ev):

   -20.6430 -20.5244 -15.3177 -15.2456 -11.4899 -11.4565  -7.6412  -6.8965
    -0.2077   0.2046   3.9451   4.1258

     occupation numbers 
     1.0000   1.0000   1.0000   1.0000   1.0000   1.0000   1.0000   1.0000
     0.0000   0.0000   0.0000   0.0000

          k =-0.4167 0.3368 0.0000     band energies (ev):

   -19.2188 -19.1214 -17.1657 -17.0870 -11.8067 -11.7719  -6.3097  -5.8219
    -1.7873  -1.4427   3.7954   3.9945

     occupation numbers 
     1.0000   1.0000   1.0000   1.0000   1.0000   1.0000   1.0000   1.0000
     0.0000   0.0000   0.0000   0.0000

          k = 0.5000 0.1925 0.0000     band energies (ev):

   -19.2188 -19.1214 -17.1656 -17.0870 -11.8067 -11.7720  -6.3098  -5.8219
    -1.7872  -1.4426   3.7948   3.9943

     occupation numbers 
     1.0000   1.0000   1.0000   1.0000   1.0000   1.0000   1.0000   1.0000
     0.0000   0.0000   0.0000   0.0000

          k = 0.3333-0.0000 0.0000     band energies (ev):

   -22.0161 -21.8849 -12.6003 -12.5727 -11.2844 -11.2647  -9.1750  -8.3154
     2.2998   2.5340   6.8386   7.0077

     occupation numbers 
     1.0000   1.0000   1.0000   1.0000   1.0000   1.0000   1.0000   1.0000
     0.0000   0.0000   0.0000   0.0000

          k =-0.2500 0.3368 0.0000     band energies (ev):

   -20.9449 -20.8234 -14.2449 -14.1938 -12.2890 -12.2540  -7.9446  -7.1582
     0.4420   0.7388   5.8636   5.9468

     occupation numbers 
     1.0000   1.0000   1.0000   1.0000   1.0000   1.0000   1.0000   1.0000
     0.0000   0.0000   0.0000   0.0000

          k = 0.4167 0.0481 0.0000     band energies (ev):

   -20.9449 -20.8234 -14.2446 -14.1934 -12.2896 -12.2545  -7.9447  -7.1584
     0.4421   0.7387   5.8686   5.9438

     occupation numbers 
     1.0000   1.0000   1.0000   1.0000   1.0000   1.0000   1.0000   1.0000
     0.0000   0.0000   0.0000   0.0000

          k =-0.3333 0.3849 0.0000     band energies (ev):

   -19.6182 -19.5107 -16.0625 -15.9903 -12.8496 -12.8051  -6.5308  -5.8909
    -1.3568  -1.0162   5.5952   5.8258

     occupation numbers 
     1.0000   1.0000   1.0000   1.0000   1.0000   1.0000   1.0000   1.0000
     0.0000   0.0000   0.0000   0.0000

          k = 0.5000 0.0962 0.0000     band energies (ev):

   -19.6181 -19.5108 -16.0624 -15.9901 -12.8498 -12.8053  -6.5309  -5.8911
    -1.3567  -1.0158   5.5913   5.8258

     occupation numbers 
     1.0000   1.0000   1.0000   1.0000   1.0000   1.0000   1.0000   1.0000
     0.0000   0.0000   0.0000   0.0000

          k =-0.4167 0.4330 0.0000     band energies (ev):

   -18.4300 -18.3758 -17.3899 -17.3538 -13.0300 -12.9833  -5.5803  -5.2351
    -2.2067  -2.0856   5.4883   5.7294

     occupation numbers 
     1.0000   1.0000   1.0000   1.0000   1.0000   1.0000   1.0000   1.0000
     0.0000   0.0000   0.0000   0.0000

          k = 0.5000 0.0000 0.0000     band energies (ev):

   -19.7598 -19.6503 -15.2418 -15.2035 -13.6565 -13.6289  -6.6230  -5.9336
    -1.1139  -0.8195   8.1066   8.2749

     occupation numbers 
     1.0000   1.0000   1.0000   1.0000   1.0000   1.0000   1.0000   1.0000
     0.0000   0.0000   0.0000   0.0000

          k =-0.3333 0.4811 0.0000     band energies (ev):

   -18.3949 -18.3058 -16.5921 -16.5331 -14.3411 -14.2955  -5.2310  -4.7400
    -2.5311  -2.2672   7.7049   8.0612

     occupation numbers 
     1.0000   1.0000   1.0000   1.0000   1.0000   1.0000   1.0000   1.0000
     0.0000   0.0000   0.0000   0.0000

          k = 0.5833 0.0481 0.0000     band energies (ev):

   -18.3949 -18.3059 -16.5918 -16.5328 -14.3414 -14.2958  -5.2311  -4.7402
    -2.5308  -2.2670   7.7077   8.0515

     occupation numbers 
     1.0000   1.0000   1.0000   1.0000   1.0000   1.0000   1.0000   1.0000
     0.0000   0.0000   0.0000   0.0000

     the Fermi energy is    -3.6854 ev

!    total energy              =     -45.62012204 Ry
     Harris-Foulkes estimate   =     -45.74965415 Ry
     estimated scf accuracy    <       0.39038173 Ry

     The total energy is the sum of the following terms:

     one-electron contribution =    -553.24757818 Ry
     hartree contribution      =     276.49091595 Ry
     xc contribution           =     -13.66378253 Ry
     ewald contribution        =     240.51192491 Ry
     scf correction            =       4.28839872 Ry
     smearing contrib. (-TS)   =      -0.00000089 Ry

     iteration #  2     ecut=    40.00 Ry     beta=0.30
     Davidson diagonalization with overlap
     ethr =  2.44E-03,  avg # of iterations =  1.4

     negative rho (up, down):  7.465E-05 0.000E+00

     total cpu time spent up to now is       15.2 secs

          k = 0.0000 0.0000 0.0000     band energies (ev):

   -22.1354 -21.9615 -10.1174  -9.0693  -6.0818  -6.0801  -6.0403  -6.0385
     5.5588   5.5609   5.6080   5.6103

     occupation numbers 
     1.0000   1.0000   1.0000   1.0000   1.0000   1.0000   1.0000   1.0000
     0.0000   0.0000   0.0000   0.0000

          k = 0.0000 0.0962 0.0000     band energies (ev):

   -21.9739 -21.8016  -9.9220  -8.8811  -6.6985  -6.6540  -6.4023  -6.3589
     5.5073   5.6553   6.2295   6.2788

     occupation numbers 
     1.0000   1.0000   1.0000   1.0000   1.0000   1.0000   1.0000   1.0000
     0.0000   0.0000   0.0000   0.0000

          k = 0.0000 0.1925 0.0000     band energies (ev):

   -21.4911 -21.3236  -9.3409  -8.3227  -8.2650  -8.2104  -7.1626  -7.1161
     5.6399   5.7310   6.6582   6.8624

     occupation numbers 
     1.0000   1.0000   1.0000   1.0000   1.0000   1.0000   1.0000   1.0000
     0.0000   0.0000   0.0000   0.0000

          k = 0.0000 0.2887 0.0000     band energies (ev):

   -20.6930 -20.5336 -10.2917 -10.2224  -8.3918  -8.0136  -7.9647  -7.4158
     4.6928   5.0236   5.3796   5.4965

     occupation numbers 
     1.0000   1.0000   1.0000   1.0000   1.0000   1.0000   1.0000   1.0000
     0.0000   0.0000   0.0000   0.0000

          k = 0.0000 0.3849 0.0000     band energies (ev):

   -19.5925 -19.4439 -12.4333 -12.3475  -8.7270  -8.6765  -7.1210  -6.2225
     2.4277   2.8967   5.0898   5.2719

     occupation numbers 
     1.0000   1.0000   1.0000   1.0000   1.0000   1.0000   1.0000   1.0000
     0.0000   0.0000   0.0000   0.0000

          k = 0.0000 0.4811 0.0000     band energies (ev):

   -18.2212 -18.0876 -14.4813 -14.3810  -9.1886  -9.1372  -5.6695  -4.9442
     0.3713   0.8832   4.8754   5.0861

     occupation numbers 
     1.0000   1.0000   1.0000   1.0000   1.0000   1.0000   1.0000   1.0000
     0.0000   0.0000   0.0000   0.0000

          k = 0.0000-0.5774 0.0000     band energies (ev):

   -16.9712 -16.8962 -15.9162 -15.8545  -9.3473  -9.2956  -4.7212  -4.3321
    -0.5624  -0.2187   4.7915   5.0157

     occupation numbers 
     1.0000   1.0000   1.0000   1.0000   1.0000   1.0000   1.0000   1.0000
     0.0000   0.0000   0.0000   0.0000

          k = 0.0833 0.1443 0.0000     band energies (ev):

   -21.6518 -21.4827  -9.5336  -8.5074  -7.6861  -7.6420  -7.0436  -7.0013
     3.5263   5.9480   5.9961   7.2310

     occupation numbers 
     1.0000   1.0000   1.0000   1.0000   1.0000   1.0000   1.0000   1.0000
     0.0000   0.0000   0.0000   0.0000

          k = 0.0833 0.2406 0.0000     band energies (ev):

   -21.0113 -20.8487  -9.3339  -9.2780  -8.7674  -8.0014  -7.9539  -7.7731
     5.5351   5.7721   6.2005   6.3124

     occupation numbers 
     1.0000   1.0000   1.0000   1.0000   1.0000   1.0000   1.0000   1.0000
     0.0000   0.0000   0.0000   0.0000

          k = 0.0833 0.3368 0.0000     band energies (ev):

   -20.0618 -19.9086 -11.3428 -11.2686  -8.8625  -8.8099  -7.6520  -6.7149
     3.4330   3.7998   5.9000   6.0517

     occupation numbers 
     1.0000   1.0000   1.0000   1.0000   1.0000   1.0000   1.0000   1.0000
     0.0000   0.0000   0.0000   0.0000

          k = 0.0833 0.4330 0.0000     band energies (ev):

   -18.8229 -18.6822 -13.4095 -13.3178  -9.4823  -9.4271  -6.2626  -5.4352
     1.2705   1.7446   5.6522   5.8602

     occupation numbers 
     1.0000   1.0000   1.0000   1.0000   1.0000   1.0000   1.0000   1.0000
     0.0000   0.0000   0.0000   0.0000

          k = 0.0833 0.5292 0.0000     band energies (ev):

   -17.3703 -17.2520 -15.2977 -15.1990  -9.8037  -9.7473  -4.8840  -4.3389
    -0.3594   0.0408   5.4949   5.7255

     occupation numbers 
     1.0000   1.0000   1.0000   1.0000   1.0000   1.0000   1.0000   1.0000
     0.0000   0.0000   0.0000   0.0000

          k = 0.1667 0.2887 0.0000     band energies (ev):

   -20.2194 -20.0646 -10.6249 -10.5743  -9.2956  -9.2500  -7.8315  -6.8823
     3.8831   4.1476   5.4409   6.0215

     occupation numbers 
     1.0000   1.0000   1.0000   1.0000   1.0000   1.0000   1.0000   1.0000
     0.0000   0.0000   0.0000   0.0000

          k = 0.1667 0.3849 0.0000     band energies (ev):

   -19.1301 -18.9863 -12.3053 -12.2343 -10.3224 -10.2655  -6.5758  -5.7040
     1.9744   2.3109   7.5052   7.6183

     occupation numbers 
     1.0000   1.0000   1.0000   1.0000   1.0000   1.0000   1.0000   1.0000
     0.0000   0.0000   0.0000   0.0000

          k = 0.1667 0.4811 0.0000     band energies (ev):

   -17.7794 -17.6505 -14.1654 -14.0733 -10.8901 -10.8251  -5.1248  -4.4112
     0.1204   0.5116   7.3183   7.5889

     occupation numbers 
     1.0000   1.0000   1.0000   1.0000   1.0000   1.0000   1.0000   1.0000
     0.0000   0.0000   0.0000   0.0000

          k = 0.1667 0.5774 0.0000     band energies (ev):

   -16.5595 -16.4866 -15.5303 -15.4732 -11.0724 -11.0054  -4.1322  -3.7497
    -0.7510  -0.5979   7.2188   7.4998

     occupation numbers 
     1.0000   1.0000   1.0000   1.0000   1.0000   1.0000   1.0000   1.0000
     0.0000   0.0000   0.0000   0.0000

          k = 0.2500 0.4330 0.0000     band energies (ev):

   -17.9244 -17.7933 -13.3151 -13.2563 -11.7377 -11.6871  -5.2240  -4.4567
     0.3984   0.7279   9.8918  10.0787

     occupation numbers 
     1.0000   1.0000   1.0000   1.0000   1.0000   1.0000   1.0000   1.0000
     0.0000   0.0000   0.0000   0.0000

          k = 0.2500 0.5292 0.0000     band energies (ev):

   -16.5302 -16.4208 -14.6983 -14.6194 -12.4339 -12.3677  -3.7922  -3.2434
    -1.0452  -0.7489   9.4027   9.8243

     occupation numbers 
     1.0000   1.0000   1.0000   1.0000   1.0000   1.0000   1.0000   1.0000
     0.0000   0.0000   0.0000   0.0000

          k = 0.3333 0.5774 0.0000     band energies (ev):

   -15.3549 -15.3151 -15.2754 -15.2395 -13.2692 -13.2301  -2.5493  -2.2135
    -2.1756  -1.8162   9.1962  11.1818

     occupation numbers 
     1.0000   1.0000   1.0000   1.0000   1.0000   1.0000   1.0000   1.0000
     0.0000   0.0000   0.0000   0.0000

          k =-0.0833 0.0481 0.0000     band energies (ev):

   -21.9739 -21.8016  -9.9220  -8.8811  -6.6974  -6.6528  -6.4035  -6.3602
     3.0941   5.6449   5.6938   6.2313

     occupation numbers 
     1.0000   1.0000   1.0000   1.0000   1.0000   1.0000   1.0000   1.0000
     0.0000   0.0000   0.0000   0.0000

          k =-0.1667 0.0962 0.0000     band energies (ev):

   -21.4911 -21.3236  -9.3409  -8.3228  -8.2641  -8.2095  -7.1636  -7.1171
     5.6418   5.7227   6.7297   6.9592

     occupation numbers 
     1.0000   1.0000   1.0000   1.0000   1.0000   1.0000   1.0000   1.0000
     0.0000   0.0000   0.0000   0.0000

          k =-0.2500 0.1443 0.0000     band energies (ev):

   -20.6930 -20.5336 -10.2910 -10.2217  -8.3919  -8.0145  -7.9655  -7.4159
     4.6940   5.0244   5.4081   5.4903

     occupation numbers 
     1.0000   1.0000   1.0000   1.0000   1.0000   1.0000   1.0000   1.0000
     0.0000   0.0000   0.0000   0.0000

          k =-0.3333 0.1925 0.0000     band energies (ev):

   -19.5925 -19.4439 -12.4328 -12.3470  -8.7278  -8.6772  -7.1212  -6.2227
     2.4283   2.8971   5.0896   5.2718

     occupation numbers 
     1.0000   1.0000   1.0000   1.0000   1.0000   1.0000   1.0000   1.0000
     0.0000   0.0000   0.0000   0.0000

          k =-0.4167 0.2406 0.0000     band energies (ev):

   -18.2212 -18.0876 -14.4808 -14.3805  -9.1892  -9.1378  -5.6699  -4.9447
     0.3721   0.8839   4.8752   5.0855

     occupation numbers 
     1.0000   1.0000   1.0000   1.0000   1.0000   1.0000   1.0000   1.0000
     0.0000   0.0000   0.0000   0.0000

          k = 0.5000-0.2887 0.0000     band energies (ev):

   -16.9716 -16.8966 -15.9153 -15.8537  -9.3480  -9.2962  -4.7219  -4.3327
    -0.5615  -0.2176   4.7913   5.0153

     occupation numbers 
     1.0000   1.0000   1.0000   1.0000   1.0000   1.0000   1.0000   1.0000
     0.0000   0.0000   0.0000   0.0000

          k = 0.1667-0.0000 0.0000     band energies (ev):

   -21.6517 -21.4827  -9.5337  -8.5076  -7.6850  -7.6408  -7.0448  -7.0026
     3.5040   4.0422   5.8824   5.9486

     occupation numbers 
     1.0000   1.0000   1.0000   1.0000   1.0000   1.0000   1.0000   1.0000
     0.0000   0.0000   0.0000   0.0000

          k =-0.1667 0.1925 0.0000     band energies (ev):

   -21.0113 -20.8487  -9.3334  -9.2775  -8.7674  -8.0019  -7.9545  -7.7731
     5.5326   5.7722   6.1935   6.3077

     occupation numbers 
     1.0000   1.0000   1.0000   1.0000   1.0000   1.0000   1.0000   1.0000
     0.0000   0.0000   0.0000   0.0000

          k = 0.2500 0.0481 0.0000     band energies (ev):

   -21.0113 -20.8487  -9.3329  -9.2770  -8.7674  -8.0025  -7.9551  -7.7732
     5.5335   5.7721   6.1828   6.2916

     occupation numbers 
     1.0000   1.0000   1.0000   1.0000   1.0000   1.0000   1.0000   1.0000
     0.0000   0.0000   0.0000   0.0000

          k =-0.2500 0.2406 0.0000     band energies (ev):

   -20.0618 -19.9086 -11.3423 -11.2680  -8.8631  -8.8105  -7.6521  -6.7150
     3.4333   3.8000   5.9008   6.0507

     occupation numbers 
     1.0000   1.0000   1.0000   1.0000   1.0000   1.0000   1.0000   1.0000
     0.0000   0.0000   0.0000   0.0000

          k = 0.3333 0.0962 0.0000     band energies (ev):

   -20.0618 -19.9086 -11.3421 -11.2678  -8.8633  -8.8108  -7.6521  -6.7151
     3.4336   3.8004   5.8988   6.0486

     occupation numbers 
     1.0000   1.0000   1.0000   1.0000   1.0000   1.0000   1.0000   1.0000
     0.0000   0.0000   0.0000   0.0000

          k =-0.3333 0.2887 0.0000     band energies (ev):

   -18.8228 -18.6822 -13.4091 -13.3174  -9.4829  -9.4277  -6.2628  -5.4354
     1.2712   1.7450   5.6517   5.8597

     occupation numbers 
     1.0000   1.0000   1.0000   1.0000   1.0000   1.0000   1.0000   1.0000
     0.0000   0.0000   0.0000   0.0000

          k = 0.4167 0.1443 0.0000     band energies (ev):

   -18.8228 -18.6822 -13.4090 -13.3173  -9.4830  -9.4278  -6.2628  -5.4355
     1.2713   1.7452   5.6514   5.8597

     occupation numbers 
     1.0000   1.0000   1.0000   1.0000   1.0000   1.0000   1.0000   1.0000
     0.0000   0.0000   0.0000   0.0000

          k =-0.4167 0.3368 0.0000     band energies (ev):

   -17.3704 -17.2521 -15.2972 -15.1984  -9.8043  -9.7480  -4.8845  -4.3395
    -0.3586   0.0417   5.4946   5.7249

     occupation numbers 
     1.0000   1.0000   1.0000   1.0000   1.0000   1.0000   1.0000   1.0000
     0.0000   0.0000   0.0000   0.0000

          k = 0.5000 0.1925 0.0000     band energies (ev):

   -17.3704 -17.2521 -15.2972 -15.1984  -9.8043  -9.7480  -4.8845  -4.3395
    -0.3585   0.0417   5.4943   5.7247

     occupation numbers 
     1.0000   1.0000   1.0000   1.0000   1.0000   1.0000   1.0000   1.0000
     0.0000   0.0000   0.0000   0.0000

          k = 0.3333-0.0000 0.0000     band energies (ev):

   -20.2194 -20.0646 -10.6240 -10.5734  -9.2965  -9.2508  -7.8316  -6.8823
     3.8837   4.1481   5.5330   8.6044

     occupation numbers 
     1.0000   1.0000   1.0000   1.0000   1.0000   1.0000   1.0000   1.0000
     0.0000   0.0000   0.0000   0.0000

          k =-0.2500 0.3368 0.0000     band energies (ev):

   -19.1301 -18.9863 -12.3049 -12.2339 -10.3228 -10.2659  -6.5759  -5.7040
     1.9747   2.3112   7.4939   7.6186

     occupation numbers 
     1.0000   1.0000   1.0000   1.0000   1.0000   1.0000   1.0000   1.0000
     0.0000   0.0000   0.0000   0.0000

          k = 0.4167 0.0481 0.0000     band energies (ev):

   -19.1301 -18.9863 -12.3045 -12.2335 -10.3232 -10.2664  -6.5760  -5.7042
     1.9749   2.3115   7.4885   7.6209

     occupation numbers 
     1.0000   1.0000   1.0000   1.0000   1.0000   1.0000   1.0000   1.0000
     0.0000   0.0000   0.0000   0.0000

          k =-0.3333 0.3849 0.0000     band energies (ev):

   -17.7794 -17.6506 -14.1649 -14.0729 -10.8906 -10.8256  -5.1250  -4.4114
     0.1210   0.5120   7.3191   7.5868

     occupation numbers 
     1.0000   1.0000   1.0000   1.0000   1.0000   1.0000   1.0000   1.0000
     0.0000   0.0000   0.0000   0.0000

          k = 0.5000 0.0962 0.0000     band energies (ev):

   -17.7794 -17.6506 -14.1648 -14.0727 -10.8907 -10.8258  -5.1251  -4.4116
     0.1212   0.5123   7.3168   7.5870

     occupation numbers 
     1.0000   1.0000   1.0000   1.0000   1.0000   1.0000   1.0000   1.0000
     0.0000   0.0000   0.0000   0.0000

          k =-0.4167 0.4330 0.0000     band energies (ev):

   -16.5599 -16.4871 -15.5294 -15.4722 -11.0730 -11.0060  -4.1329  -3.7503
    -0.7501  -0.5970   7.2183   7.4996

     occupation numbers 
     1.0000   1.0000   1.0000   1.0000   1.0000   1.0000   1.0000   1.0000
     0.0000   0.0000   0.0000   0.0000

          k = 0.5000 0.0000 0.0000     band energies (ev):

   -17.9244 -17.7933 -13.3144 -13.2556 -11.7384 -11.6878  -5.2242  -4.4569
     0.3989   0.7283   9.8924  10.1023

     occupation numbers 
     1.0000   1.0000   1.0000   1.0000   1.0000   1.0000   1.0000   1.0000
     0.0000   0.0000   0.0000   0.0000

          k =-0.3333 0.4811 0.0000     band energies (ev):

   -16.5304 -16.4209 -14.6978 -14.6190 -12.4343 -12.3681  -3.7924  -3.2437
    -1.0447  -0.7484   9.4004   9.8268

     occupation numbers 
     1.0000   1.0000   1.0000   1.0000   1.0000   1.0000   1.0000   1.0000
     0.0000   0.0000   0.0000   0.0000

          k = 0.5833 0.0481 0.0000     band energies (ev):

   -16.5304 -16.4210 -14.6976 -14.6187 -12.4345 -12.3683  -3.7926  -3.2439
    -1.0444  -0.7482   9.4019   9.8175

     occupation numbers 
     1.0000   1.0000   1.0000   1.0000   1.0000   1.0000   1.0000   1.0000
     0.0000   0.0000   0.0000   0.0000

     the Fermi energy is    -2.1901 ev

!    total energy              =     -45.55600110 Ry
     Harris-Foulkes estimate   =     -45.63065589 Ry
     estimated scf accuracy    <       0.13400489 Ry

     The total energy is the sum of the following terms:

     one-electron contribution =    -552.31314945 Ry
     hartree contribution      =     279.25894217 Ry
     xc contribution           =     -14.04482586 Ry
     ewald contribution        =     240.51192491 Ry
     scf correction            =       1.03110712 Ry
     smearing contrib. (-TS)   =      -0.00000000 Ry

     iteration #  3     ecut=    40.00 Ry     beta=0.30
     Davidson diagonalization with overlap
     ethr =  8.38E-04,  avg # of iterations =  5.1

     negative rho (up, down):  4.583E-05 0.000E+00

     total cpu time spent up to now is       22.4 secs

          k = 0.0000 0.0000 0.0000     band energies (ev):

   -20.1314 -19.3888  -8.5711  -7.2266  -3.6987  -3.6971  -2.9560  -2.9545
     2.7289   3.3864   3.8260   5.0136

     occupation numbers 
     1.0000   1.0000   1.0000   1.0000   1.0000   1.0000   1.0000   1.0000
     0.0000   0.0000   0.0000   0.0000

          k = 0.0000 0.0962 0.0000     band energies (ev):

   -19.9675 -19.2252  -8.3729  -7.0345  -4.3450  -4.0334  -3.6040  -3.2914
     2.9513   3.6106   4.0401   5.2305

     occupation numbers 
     1.0000   1.0000   1.0000   1.0000   1.0000   1.0000   1.0000   1.0000
     0.0000   0.0000   0.0000   0.0000

          k = 0.0000 0.1925 0.0000     band energies (ev):

   -19.4775 -18.7361  -7.7831  -6.4643  -5.9740  -5.2356  -4.8210  -4.0801
     3.6187   4.2804   4.7136   5.9005

     occupation numbers 
     1.0000   1.0000   1.0000   1.0000   1.0000   1.0000   1.0000   1.0000
     0.0000   0.0000   0.0000   0.0000

          k = 0.0000 0.2887 0.0000     band energies (ev):

   -18.6672 -17.9272  -8.0640  -7.3285  -6.8186  -5.6962  -5.5368  -4.9564
     4.7224   5.3875   5.8462   6.4984

     occupation numbers 
     1.0000   1.0000   1.0000   1.0000   1.0000   1.0000   1.0000   1.0000
     0.0000   0.0000   0.0000   0.0000

          k = 0.0000 0.3849 0.0000     band energies (ev):

   -17.5491 -16.8107 -10.2608  -9.5263  -6.4260  -5.6869  -5.5246  -4.3100
     4.1437   5.0220   7.0035   7.7379

     occupation numbers 
     1.0000   1.0000   1.0000   1.0000   1.0000   1.0000   1.0000   1.0000
     0.0000   0.0000   0.0000   0.0000

          k = 0.0000 0.4811 0.0000     band energies (ev):

   -16.1541 -15.4178 -12.3561 -11.6222  -6.8968  -6.1581  -4.0423  -2.9787
     2.0138   2.9151   6.7846   7.5347

     occupation numbers 
     1.0000   1.0000   1.0000   1.0000   1.0000   1.0000   1.0000   1.0000
     0.0000   0.0000   0.0000   0.0000

          k = 0.0000-0.5774 0.0000     band energies (ev):

   -14.8892 -14.1719 -13.8442 -13.1284  -7.0585  -6.3198  -3.0941  -2.3030
     1.0190   1.7819   6.6997   7.4540

     occupation numbers 
     1.0000   1.0000   1.0000   1.0000   1.0000   1.0000   1.0000   1.0000
     0.0000   0.0000   0.0000   0.0000

          k = 0.0833 0.1443 0.0000     band energies (ev):

   -19.6405 -18.8988  -7.9788  -6.6532  -5.3723  -4.7095  -4.6310  -3.9667
     3.3971   4.0660   4.4906   5.6806

     occupation numbers 
     1.0000   1.0000   1.0000   1.0000   1.0000   1.0000   1.0000   1.0000
     0.0000   0.0000   0.0000   0.0000

          k = 0.0833 0.2406 0.0000     band energies (ev):

   -18.9904 -18.2498  -7.2012  -7.0745  -6.3387  -5.9028  -5.6993  -4.9609
     4.2839   4.9499   5.3967   6.5825

     occupation numbers 
     1.0000   1.0000   1.0000   1.0000   1.0000   1.0000   1.0000   1.0000
     0.0000   0.0000   0.0000   0.0000

          k = 0.0833 0.3368 0.0000     band energies (ev):

   -18.0260 -17.2870  -9.1408  -8.4060  -6.5817  -6.0661  -5.8437  -4.8179
     5.1700   5.6515   5.9836   6.3451

     occupation numbers 
     1.0000   1.0000   1.0000   1.0000   1.0000   1.0000   1.0000   1.0000
     0.0000   0.0000   0.0000   0.0000

          k = 0.0833 0.4330 0.0000     band energies (ev):

   -16.7664 -16.0291 -11.2582 -10.5241  -7.2138  -6.4763  -4.6489  -3.4962
     2.9593   3.8377   7.5905   8.3387

     occupation numbers 
     1.0000   1.0000   1.0000   1.0000   1.0000   1.0000   1.0000   1.0000
     0.0000   0.0000   0.0000   0.0000

          k = 0.0833 0.5292 0.0000     band energies (ev):

   -15.2875 -14.5538 -13.1944 -12.4624  -7.5409  -6.8036  -3.2464  -2.3357
     1.2538   2.0659   7.4322   8.1898

     occupation numbers 
     1.0000   1.0000   1.0000   1.0000   1.0000   1.0000   1.0000   1.0000
     0.0000   0.0000   0.0000   0.0000

          k = 0.1667 0.2887 0.0000     band energies (ev):

   -18.1860 -17.4468  -8.3990  -7.6664  -7.0538  -6.3203  -6.2489  -4.9902
     5.4089   5.6570   6.0832   6.4097

     occupation numbers 
     1.0000   1.0000   1.0000   1.0000   1.0000   1.0000   1.0000   1.0000
     0.0000   0.0000   0.0000   0.0000

          k = 0.1667 0.3849 0.0000     band energies (ev):

   -17.0789 -16.3412 -10.1218  -9.3887  -8.1076  -7.3734  -4.9699  -3.7782
     3.7022   4.4878   6.9507   7.6317

     occupation numbers 
     1.0000   1.0000   1.0000   1.0000   1.0000   1.0000   1.0000   1.0000
     0.0000   0.0000   0.0000   0.0000

          k = 0.1667 0.4811 0.0000     band energies (ev):

   -15.7039 -14.9681 -12.0283 -11.2951  -8.6821  -7.9474  -3.4890  -2.4346
     1.7925   2.6083   9.2993  10.0720

     occupation numbers 
     1.0000   1.0000   1.0000   1.0000   1.0000   1.0000   1.0000   1.0000
     0.0000   0.0000   0.0000   0.0000

          k = 0.1667 0.5774 0.0000     band energies (ev):

   -14.4684 -13.7507 -13.4459 -12.7297  -8.8664  -8.1315  -2.4981  -1.7134
     0.8319   1.5090   9.2081   9.9886

     occupation numbers 
     1.0000   1.0000   1.0000   1.0000   1.0000   1.0000   1.0000   1.0000
     0.0000   0.0000   0.0000   0.0000

          k = 0.2500 0.4330 0.0000     band energies (ev):

   -15.8515 -15.1154 -11.1530 -10.4239  -9.5843  -8.8555  -3.5915  -2.4899
     2.0989   2.8735   8.6499   9.2768

     occupation numbers 
     1.0000   1.0000   1.0000   1.0000   1.0000   1.0000   1.0000   1.0000
     0.0000   0.0000   0.0000   0.0000

          k = 0.2500 0.5292 0.0000     band energies (ev):

   -14.4301 -13.6969 -12.5712 -11.8412 -10.2915  -9.5611  -2.1369  -1.2235
     0.6172   1.3628  10.1734  10.6874

     occupation numbers 
     1.0000   1.0000   1.0000   1.0000   1.0000   1.0000   1.0000   1.0000
     0.0000   0.0000   0.0000   0.0000

          k = 0.3333 0.5774 0.0000     band energies (ev):

   -13.2140 -13.2132 -12.4869 -12.4792 -11.1822 -10.4581  -0.8406  -0.6738
     0.0235   0.2198   9.9558  10.4314

     occupation numbers 
     1.0000   1.0000   1.0000   1.0000   1.0000   1.0000   1.0000   1.0000
     0.0000   0.0000   0.0000   0.0000

          k =-0.0833 0.0481 0.0000     band energies (ev):

   -19.9675 -19.2252  -8.3729  -7.0345  -4.3440  -4.0344  -3.6029  -3.2924
     2.9512   3.6101   4.0382   5.2332

     occupation numbers 
     1.0000   1.0000   1.0000   1.0000   1.0000   1.0000   1.0000   1.0000
     0.0000   0.0000   0.0000   0.0000

          k =-0.1667 0.0962 0.0000     band energies (ev):

   -19.4775 -18.7361  -7.7832  -6.4643  -5.9732  -5.2350  -4.8220  -4.0810
     3.6194   4.2815   4.7198   5.9059

     occupation numbers 
     1.0000   1.0000   1.0000   1.0000   1.0000   1.0000   1.0000   1.0000
     0.0000   0.0000   0.0000   0.0000

          k =-0.2500 0.1443 0.0000     band energies (ev):

   -18.6672 -17.9272  -8.0634  -7.3280  -6.8187  -5.6970  -5.5369  -4.9571
     4.7227   5.3889   5.8476   6.4995

     occupation numbers 
     1.0000   1.0000   1.0000   1.0000   1.0000   1.0000   1.0000   1.0000
     0.0000   0.0000   0.0000   0.0000

          k =-0.3333 0.1925 0.0000     band energies (ev):

   -17.5490 -16.8107 -10.2603  -9.5258  -6.4267  -5.6875  -5.5247  -4.3101
     4.1442   5.0223   7.0043   7.7405

     occupation numbers 
     1.0000   1.0000   1.0000   1.0000   1.0000   1.0000   1.0000   1.0000
     0.0000   0.0000   0.0000   0.0000

          k =-0.4167 0.2406 0.0000     band energies (ev):

   -16.1541 -15.4178 -12.3557 -11.6218  -6.8974  -6.1586  -4.0426  -2.9791
     2.0146   2.9157   6.7843   7.5344

     occupation numbers 
     1.0000   1.0000   1.0000   1.0000   1.0000   1.0000   1.0000   1.0000
     0.0000   0.0000   0.0000   0.0000

          k = 0.5000-0.2887 0.0000     band energies (ev):

   -14.8895 -14.1721 -13.8435 -13.1278  -7.0590  -6.3204  -3.0947  -2.3035
     1.0199   1.7828   6.6994   7.4538

     occupation numbers 
     1.0000   1.0000   1.0000   1.0000   1.0000   1.0000   1.0000   1.0000
     0.0000   0.0000   0.0000   0.0000

          k = 0.1667-0.0000 0.0000     band energies (ev):

   -19.6404 -18.8988  -7.9788  -6.6532  -5.3712  -4.7105  -4.6300  -3.9678
     3.3966   4.0571   4.5004   5.6846

     occupation numbers 
     1.0000   1.0000   1.0000   1.0000   1.0000   1.0000   1.0000   1.0000
     0.0000   0.0000   0.0000   0.0000

          k =-0.1667 0.1925 0.0000     band energies (ev):

   -18.9904 -18.2498  -7.2012  -7.0740  -6.3383  -5.9028  -5.6999  -4.9614
     4.2837   4.9502   5.4099   6.5890

     occupation numbers 
     1.0000   1.0000   1.0000   1.0000   1.0000   1.0000   1.0000   1.0000
     0.0000   0.0000   0.0000   0.0000

          k = 0.2500 0.0481 0.0000     band energies (ev):

   -18.9904 -18.2498  -7.2012  -7.0735  -6.3379  -5.9029  -5.7003  -4.9618
     4.2914   4.9499   5.3930   6.5719

     occupation numbers 
     1.0000   1.0000   1.0000   1.0000   1.0000   1.0000   1.0000   1.0000
     0.0000   0.0000   0.0000   0.0000

          k =-0.2500 0.2406 0.0000     band energies (ev):

   -18.0260 -17.2870  -9.1404  -8.4056  -6.5823  -6.0661  -5.8443  -4.8180
     5.1702   5.6541   5.9838   6.3428

     occupation numbers 
     1.0000   1.0000   1.0000   1.0000   1.0000   1.0000   1.0000   1.0000
     0.0000   0.0000   0.0000   0.0000

          k = 0.3333 0.0962 0.0000     band energies (ev):

   -18.0260 -17.2870  -9.1402  -8.4054  -6.5825  -6.0662  -5.8444  -4.8180
     5.1704   5.6522   5.9840   6.3452

     occupation numbers 
     1.0000   1.0000   1.0000   1.0000   1.0000   1.0000   1.0000   1.0000
     0.0000   0.0000   0.0000   0.0000

          k =-0.3333 0.2887 0.0000     band energies (ev):

   -16.7664 -16.0291 -11.2578 -10.5237  -7.2144  -6.4768  -4.6491  -3.4964
     2.9598   3.8382   7.5901   8.3377

     occupation numbers 
     1.0000   1.0000   1.0000   1.0000   1.0000   1.0000   1.0000   1.0000
     0.0000   0.0000   0.0000   0.0000

          k = 0.4167 0.1443 0.0000     band energies (ev):

   -16.7664 -16.0291 -11.2577 -10.5237  -7.2145  -6.4769  -4.6491  -3.4964
     2.9600   3.8383   7.5899   8.3380

     occupation numbers 
     1.0000   1.0000   1.0000   1.0000   1.0000   1.0000   1.0000   1.0000
     0.0000   0.0000   0.0000   0.0000

          k =-0.4167 0.3368 0.0000     band energies (ev):

   -15.2876 -14.5539 -13.1939 -12.4620  -7.5415  -6.8041  -3.2468  -2.3362
     1.2546   2.0667   7.4318   8.1896

     occupation numbers 
     1.0000   1.0000   1.0000   1.0000   1.0000   1.0000   1.0000   1.0000
     0.0000   0.0000   0.0000   0.0000

          k = 0.5000 0.1925 0.0000     band energies (ev):

   -15.2876 -14.5539 -13.1939 -12.4620  -7.5415  -6.8041  -3.2468  -2.3362
     1.2546   2.0668   7.4317   8.1895

     occupation numbers 
     1.0000   1.0000   1.0000   1.0000   1.0000   1.0000   1.0000   1.0000
     0.0000   0.0000   0.0000   0.0000

          k = 0.3333-0.0000 0.0000     band energies (ev):

   -18.1860 -17.4468  -8.3983  -7.6657  -7.0554  -6.3212  -6.2490  -4.9903
     5.3944   5.6571   6.0757   6.4080

     occupation numbers 
     1.0000   1.0000   1.0000   1.0000   1.0000   1.0000   1.0000   1.0000
     0.0000   0.0000   0.0000   0.0000

          k =-0.2500 0.3368 0.0000     band energies (ev):

   -17.0789 -16.3412 -10.1214  -9.3884  -8.1080  -7.3738  -4.9699  -3.7783
     3.7024   4.4880   6.9500   7.6310

     occupation numbers 
     1.0000   1.0000   1.0000   1.0000   1.0000   1.0000   1.0000   1.0000
     0.0000   0.0000   0.0000   0.0000

          k = 0.4167 0.0481 0.0000     band energies (ev):

   -17.0789 -16.3411 -10.1211  -9.3881  -8.1084  -7.3741  -4.9700  -3.7784
     3.7028   4.4883   6.9483   7.6306

     occupation numbers 
     1.0000   1.0000   1.0000   1.0000   1.0000   1.0000   1.0000   1.0000
     0.0000   0.0000   0.0000   0.0000

          k =-0.3333 0.3849 0.0000     band energies (ev):

   -15.7040 -14.9682 -12.0279 -11.2947  -8.6826  -7.9478  -3.4892  -2.4349
     1.7930   2.6087   9.2987  10.0712

     occupation numbers 
     1.0000   1.0000   1.0000   1.0000   1.0000   1.0000   1.0000   1.0000
     0.0000   0.0000   0.0000   0.0000

          k = 0.5000 0.0962 0.0000     band energies (ev):

   -15.7039 -14.9681 -12.0278 -11.2946  -8.6827  -7.9479  -3.4894  -2.4350
     1.7932   2.6089   9.2983  10.0704

     occupation numbers 
     1.0000   1.0000   1.0000   1.0000   1.0000   1.0000   1.0000   1.0000
     0.0000   0.0000   0.0000   0.0000

          k =-0.4167 0.4330 0.0000     band energies (ev):

   -14.4688 -13.7510 -13.4451 -12.7291  -8.8669  -8.1320  -2.4987  -1.7139
     0.8327   1.5098   9.2077   9.9882

     occupation numbers 
     1.0000   1.0000   1.0000   1.0000   1.0000   1.0000   1.0000   1.0000
     0.0000   0.0000   0.0000   0.0000

          k = 0.5000 0.0000 0.0000     band energies (ev):

   -15.8515 -15.1154 -11.1524 -10.4234  -9.5850  -8.8561  -3.5917  -2.4901
     2.0993   2.8740   8.6262   9.2725

     occupation numbers 
     1.0000   1.0000   1.0000   1.0000   1.0000   1.0000   1.0000   1.0000
     0.0000   0.0000   0.0000   0.0000

          k =-0.3333 0.4811 0.0000     band energies (ev):

   -14.4302 -13.6970 -12.5708 -11.8408 -10.2918  -9.5615  -2.1372  -1.2238
     0.6176   1.3631  10.1767  10.6860

     occupation numbers 
     1.0000   1.0000   1.0000   1.0000   1.0000   1.0000   1.0000   1.0000
     0.0000   0.0000   0.0000   0.0000

          k = 0.5833 0.0481 0.0000     band energies (ev):

   -14.4302 -13.6970 -12.5706 -11.8406 -10.2920  -9.5616  -2.1374  -1.2240
     0.6179   1.3635  10.1791  10.6881

     occupation numbers 
     1.0000   1.0000   1.0000   1.0000   1.0000   1.0000   1.0000   1.0000
     0.0000   0.0000   0.0000   0.0000

     the Fermi energy is    -0.3869 ev

!    total energy              =     -45.57687500 Ry
     Harris-Foulkes estimate   =     -45.57849419 Ry
     estimated scf accuracy    <       0.00770660 Ry

     The total energy is the sum of the following terms:

     one-electron contribution =    -550.87651595 Ry
     hartree contribution      =     279.18046775 Ry
     xc contribution           =     -14.04032252 Ry
     ewald contribution        =     240.51192491 Ry
     scf correction            =      -0.35242920 Ry
     smearing contrib. (-TS)   =       0.00000000 Ry

     iteration #  4     ecut=    40.00 Ry     beta=0.30
     Davidson diagonalization with overlap
     ethr =  4.82E-05,  avg # of iterations =  4.3

     negative rho (up, down):  4.107E-05 0.000E+00

     total cpu time spent up to now is       28.1 secs

          k = 0.0000 0.0000 0.0000     band energies (ev):

   -19.9716 -19.6777  -8.5490  -7.3583  -3.5103  -3.5086  -3.2879  -3.2863
     2.8975   3.2743   3.8740   5.0495

     occupation numbers 
     1.0000   1.0000   1.0000   1.0000   1.0000   1.0000   1.0000   1.0000
     0.0000   0.0000   0.0000   0.0000

          k = 0.0000 0.0962 0.0000     band energies (ev):

   -19.8072 -19.5147  -8.3504  -7.1668  -4.1572  -3.9345  -3.8453  -3.6227
     3.1197   3.4980   4.1001   5.2740

     occupation numbers 
     1.0000   1.0000   1.0000   1.0000   1.0000   1.0000   1.0000   1.0000
     0.0000   0.0000   0.0000   0.0000

          k = 0.0000 0.1925 0.0000     band energies (ev):

   -19.3159 -19.0272  -7.7592  -6.5983  -5.7878  -5.5629  -4.6337  -4.4106
     3.7856   4.1673   4.7779   5.9451

     occupation numbers 
     1.0000   1.0000   1.0000   1.0000   1.0000   1.0000   1.0000   1.0000
     0.0000   0.0000   0.0000   0.0000

          k = 0.0000 0.2887 0.0000     band energies (ev):

   -18.5036 -18.2210  -7.8803  -7.6507  -6.7920  -5.6743  -5.5094  -5.2859
     4.8907   5.2692   5.9066   6.6101

     occupation numbers 
     1.0000   1.0000   1.0000   1.0000   1.0000   1.0000   1.0000   1.0000
     0.0000   0.0000   0.0000   0.0000

          k = 0.0000 0.3849 0.0000     band energies (ev):

   -17.3826 -17.1080 -10.0800  -9.8435  -6.2395  -6.0158  -5.4923  -4.4544
     4.2220   4.8201   6.4287   6.8433

     occupation numbers 
     1.0000   1.0000   1.0000   1.0000   1.0000   1.0000   1.0000   1.0000
     0.0000   0.0000   0.0000   0.0000

          k = 0.0000 0.4811 0.0000     band energies (ev):

   -15.9840 -15.7198 -12.1783 -11.9345  -6.7105  -6.4866  -3.9945  -3.1404
     2.0857   2.7264   6.9318   7.2578

     occupation numbers 
     1.0000   1.0000   1.0000   1.0000   1.0000   1.0000   1.0000   1.0000
     0.0000   0.0000   0.0000   0.0000

          k = 0.0000-0.5774 0.0000     band energies (ev):

   -14.7079 -14.4803 -13.6668 -13.4449  -6.8722  -6.6483  -2.9959  -2.5150
     1.1181   1.5664   6.8454   7.1814

     occupation numbers 
     1.0000   1.0000   1.0000   1.0000   1.0000   1.0000   1.0000   1.0000
     0.0000   0.0000   0.0000   0.0000

          k = 0.0833 0.1443 0.0000     band energies (ev):

   -19.4794 -19.1894  -7.9554  -6.7866  -5.1850  -4.9633  -4.5187  -4.2971
     3.5637   3.9459   4.5525   5.7223

     occupation numbers 
     1.0000   1.0000   1.0000   1.0000   1.0000   1.0000   1.0000   1.0000
     0.0000   0.0000   0.0000   0.0000

          k = 0.0833 0.2406 0.0000     band energies (ev):

   -18.8276 -18.5425  -7.1756  -6.8888  -6.6642  -6.0388  -5.5125  -5.2898
     4.4506   4.8346   5.4567   6.6141

     occupation numbers 
     1.0000   1.0000   1.0000   1.0000   1.0000   1.0000   1.0000   1.0000
     0.0000   0.0000   0.0000   0.0000

          k = 0.0833 0.3368 0.0000     band energies (ev):

   -17.8608 -17.5828  -8.9579  -8.7265  -6.3956  -6.1715  -6.0366  -4.9588
     5.2765   5.7506   5.8014   6.1938

     occupation numbers 
     1.0000   1.0000   1.0000   1.0000   1.0000   1.0000   1.0000   1.0000
     0.0000   0.0000   0.0000   0.0000

          k = 0.0833 0.4330 0.0000     band energies (ev):

   -16.5980 -16.3290 -11.0786 -10.8393  -7.0281  -6.8033  -4.6107  -3.6473
     3.0387   3.6389   7.5027   7.7494

     occupation numbers 
     1.0000   1.0000   1.0000   1.0000   1.0000   1.0000   1.0000   1.0000
     0.0000   0.0000   0.0000   0.0000

          k = 0.0833 0.5292 0.0000     band energies (ev):

   -15.1140 -14.8599 -13.0167 -12.7741  -7.3553  -7.1302  -3.1760  -2.5203
     1.3429   1.8597   7.5757   7.9179

     occupation numbers 
     1.0000   1.0000   1.0000   1.0000   1.0000   1.0000   1.0000   1.0000
     0.0000   0.0000   0.0000   0.0000

          k = 0.1667 0.2887 0.0000     band energies (ev):

   -18.0213 -17.7421  -8.2129  -7.9909  -6.8681  -6.6472  -6.2204  -5.1301
     5.5564   5.7884   5.9399   6.1586

     occupation numbers 
     1.0000   1.0000   1.0000   1.0000   1.0000   1.0000   1.0000   1.0000
     0.0000   0.0000   0.0000   0.0000

          k = 0.1667 0.3849 0.0000     band energies (ev):

   -16.9113 -16.6400  -9.9385  -9.7089  -7.9225  -7.6980  -4.9354  -3.9252
     3.8134   4.2568   7.0915   7.4721

     occupation numbers 
     1.0000   1.0000   1.0000   1.0000   1.0000   1.0000   1.0000   1.0000
     0.0000   0.0000   0.0000   0.0000

          k = 0.1667 0.4811 0.0000     band energies (ev):

   -15.5327 -15.2717 -11.8489 -11.6095  -8.4980  -8.2704  -3.4398  -2.5980
     1.8878   2.3939   9.0180   9.3082

     occupation numbers 
     1.0000   1.0000   1.0000   1.0000   1.0000   1.0000   1.0000   1.0000
     0.0000   0.0000   0.0000   0.0000

          k = 0.1667 0.5774 0.0000     band energies (ev):

   -14.2866 -14.0598 -13.2679 -13.0474  -8.6826  -8.4541  -2.3993  -1.9252
     0.9750   1.2451   9.3310   9.7268

     occupation numbers 
     1.0000   1.0000   1.0000   1.0000   1.0000   1.0000   1.0000   1.0000
     0.0000   0.0000   0.0000   0.0000

          k = 0.2500 0.4330 0.0000     band energies (ev):

   -15.6808 -15.4183 -10.9682 -10.7445  -9.3991  -9.1783  -3.5475  -2.6477
     2.2130   2.6408   8.8086   9.0989

     occupation numbers 
     1.0000   1.0000   1.0000   1.0000   1.0000   1.0000   1.0000   1.0000
     0.0000   0.0000   0.0000   0.0000

          k = 0.2500 0.5292 0.0000     band energies (ev):

   -14.2545 -14.0058 -12.3898 -12.1575 -10.1081  -9.8811  -2.0672  -1.4067
     0.7334   1.1269  10.2529  10.5916

     occupation numbers 
     1.0000   1.0000   1.0000   1.0000   1.0000   1.0000   1.0000   1.0000
     0.0000   0.0000   0.0000   0.0000

          k = 0.3333 0.5774 0.0000     band energies (ev):

   -13.0418 -13.0243 -12.8030 -12.7930 -10.9958 -10.7797  -0.7986  -0.4894
    -0.2780   0.0609  10.0972  10.2261

     occupation numbers 
     1.0000   1.0000   1.0000   1.0000   1.0000   1.0000   1.0000   1.0000
     0.0000   0.0000   0.0000   0.0000

          k =-0.0833 0.0481 0.0000     band energies (ev):

   -19.8072 -19.5147  -8.3504  -7.1668  -4.1561  -3.9335  -3.8464  -3.6238
     3.1196   3.4982   4.1006   5.2742

     occupation numbers 
     1.0000   1.0000   1.0000   1.0000   1.0000   1.0000   1.0000   1.0000
     0.0000   0.0000   0.0000   0.0000

          k =-0.1667 0.0962 0.0000     band energies (ev):

   -19.3159 -19.0272  -7.7592  -6.5983  -5.7869  -5.5621  -4.6346  -4.4115
     3.7855   4.1673   4.7779   5.9448

     occupation numbers 
     1.0000   1.0000   1.0000   1.0000   1.0000   1.0000   1.0000   1.0000
     0.0000   0.0000   0.0000   0.0000

          k =-0.2500 0.1443 0.0000     band energies (ev):

   -18.5036 -18.2209  -7.8797  -7.6502  -6.7921  -5.6744  -5.5102  -5.2866
     4.8907   5.2688   5.9072   6.6088

     occupation numbers 
     1.0000   1.0000   1.0000   1.0000   1.0000   1.0000   1.0000   1.0000
     0.0000   0.0000   0.0000   0.0000

          k =-0.3333 0.1925 0.0000     band energies (ev):

   -17.3826 -17.1080 -10.0796  -9.8430  -6.2402  -6.0164  -5.4924  -4.4545
     4.2225   4.8205   6.4287   6.8433

     occupation numbers 
     1.0000   1.0000   1.0000   1.0000   1.0000   1.0000   1.0000   1.0000
     0.0000   0.0000   0.0000   0.0000

          k =-0.4167 0.2406 0.0000     band energies (ev):

   -15.9840 -15.7198 -12.1779 -11.9342  -6.7110  -6.4871  -3.9948  -3.1408
     2.0864   2.7270   6.9316   7.2575

     occupation numbers 
     1.0000   1.0000   1.0000   1.0000   1.0000   1.0000   1.0000   1.0000
     0.0000   0.0000   0.0000   0.0000

          k = 0.5000-0.2887 0.0000     band energies (ev):

   -14.7082 -14.4806 -13.6661 -13.4443  -6.8728  -6.6488  -2.9965  -2.5155
     1.1189   1.5673   6.8452   7.1812

     occupation numbers 
     1.0000   1.0000   1.0000   1.0000   1.0000   1.0000   1.0000   1.0000
     0.0000   0.0000   0.0000   0.0000

          k = 0.1667-0.0000 0.0000     band energies (ev):

   -19.4794 -19.1894  -7.9554  -6.7866  -5.1839  -4.9623  -4.5198  -4.2982
     3.5638   3.9445   4.5521   5.7220

     occupation numbers 
     1.0000   1.0000   1.0000   1.0000   1.0000   1.0000   1.0000   1.0000
     0.0000   0.0000   0.0000   0.0000

          k =-0.1667 0.1925 0.0000     band energies (ev):

   -18.8276 -18.5425  -7.1756  -6.8883  -6.6637  -6.0388  -5.5130  -5.2903
     4.4504   4.8348   5.4559   6.6140

     occupation numbers 
     1.0000   1.0000   1.0000   1.0000   1.0000   1.0000   1.0000   1.0000
     0.0000   0.0000   0.0000   0.0000

          k = 0.2500 0.0481 0.0000     band energies (ev):

   -18.8276 -18.5425  -7.1756  -6.8879  -6.6633  -6.0388  -5.5135  -5.2908
     4.4510   4.8349   5.4569   6.6138

     occupation numbers 
     1.0000   1.0000   1.0000   1.0000   1.0000   1.0000   1.0000   1.0000
     0.0000   0.0000   0.0000   0.0000

          k =-0.2500 0.2406 0.0000     band energies (ev):

   -17.8608 -17.5828  -8.9575  -8.7260  -6.3961  -6.1720  -6.0366  -4.9589
     5.2766   5.7504   5.8016   6.1936

     occupation numbers 
     1.0000   1.0000   1.0000   1.0000   1.0000   1.0000   1.0000   1.0000
     0.0000   0.0000   0.0000   0.0000

          k = 0.3333 0.0962 0.0000     band energies (ev):

   -17.8608 -17.5828  -8.9573  -8.7259  -6.3963  -6.1722  -6.0367  -4.9590
     5.2769   5.7508   5.8017   6.1938

     occupation numbers 
     1.0000   1.0000   1.0000   1.0000   1.0000   1.0000   1.0000   1.0000
     0.0000   0.0000   0.0000   0.0000

          k =-0.3333 0.2887 0.0000     band energies (ev):

   -16.5980 -16.3290 -11.0782 -10.8389  -7.0287  -6.8038  -4.6109  -3.6476
     3.0392   3.6393   7.5027   7.7491

     occupation numbers 
     1.0000   1.0000   1.0000   1.0000   1.0000   1.0000   1.0000   1.0000
     0.0000   0.0000   0.0000   0.0000

          k = 0.4167 0.1443 0.0000     band energies (ev):

   -16.5980 -16.3290 -11.0782 -10.8389  -7.0287  -6.8039  -4.6110  -3.6476
     3.0393   3.6395   7.5026   7.7490

     occupation numbers 
     1.0000   1.0000   1.0000   1.0000   1.0000   1.0000   1.0000   1.0000
     0.0000   0.0000   0.0000   0.0000

          k =-0.4167 0.3368 0.0000     band energies (ev):

   -15.1141 -14.8600 -13.0162 -12.7737  -7.3559  -7.1307  -3.1764  -2.5207
     1.3437   1.8605   7.5754   7.9176

     occupation numbers 
     1.0000   1.0000   1.0000   1.0000   1.0000   1.0000   1.0000   1.0000
     0.0000   0.0000   0.0000   0.0000

          k = 0.5000 0.1925 0.0000     band energies (ev):

   -15.1141 -14.8600 -13.0162 -12.7737  -7.3559  -7.1307  -3.1765  -2.5208
     1.3438   1.8605   7.5754   7.9176

     occupation numbers 
     1.0000   1.0000   1.0000   1.0000   1.0000   1.0000   1.0000   1.0000
     0.0000   0.0000   0.0000   0.0000

          k = 0.3333-0.0000 0.0000     band energies (ev):

   -18.0213 -17.7421  -8.2121  -7.9902  -6.8690  -6.6480  -6.2204  -5.1302
     5.5553   5.7888   5.9401   6.1590

     occupation numbers 
     1.0000   1.0000   1.0000   1.0000   1.0000   1.0000   1.0000   1.0000
     0.0000   0.0000   0.0000   0.0000

          k =-0.2500 0.3368 0.0000     band energies (ev):

   -16.9113 -16.6400  -9.9381  -9.7086  -7.9228  -7.6983  -4.9355  -3.9253
     3.8136   4.2569   7.0914   7.4721

     occupation numbers 
     1.0000   1.0000   1.0000   1.0000   1.0000   1.0000   1.0000   1.0000
     0.0000   0.0000   0.0000   0.0000

          k = 0.4167 0.0481 0.0000     band energies (ev):

   -16.9112 -16.6400  -9.9378  -9.7082  -7.9232  -7.6987  -4.9356  -3.9254
     3.8140   4.2573   7.0914   7.4720

     occupation numbers 
     1.0000   1.0000   1.0000   1.0000   1.0000   1.0000   1.0000   1.0000
     0.0000   0.0000   0.0000   0.0000

          k =-0.3333 0.3849 0.0000     band energies (ev):

   -15.5327 -15.2717 -11.8485 -11.6092  -8.4985  -8.2709  -3.4400  -2.5983
     1.8883   2.3942   9.0180   9.3082

     occupation numbers 
     1.0000   1.0000   1.0000   1.0000   1.0000   1.0000   1.0000   1.0000
     0.0000   0.0000   0.0000   0.0000

          k = 0.5000 0.0962 0.0000     band energies (ev):

   -15.5327 -15.2717 -11.8484 -11.6091  -8.4986  -8.2710  -3.4401  -2.5984
     1.8886   2.3945   9.0179   9.3080

     occupation numbers 
     1.0000   1.0000   1.0000   1.0000   1.0000   1.0000   1.0000   1.0000
     0.0000   0.0000   0.0000   0.0000

          k =-0.4167 0.4330 0.0000     band energies (ev):

   -14.2870 -14.0601 -13.2672 -13.0467  -8.6831  -8.4546  -2.3999  -1.9257
     0.9758   1.2460   9.3307   9.7265

     occupation numbers 
     1.0000   1.0000   1.0000   1.0000   1.0000   1.0000   1.0000   1.0000
     0.0000   0.0000   0.0000   0.0000

          k = 0.5000 0.0000 0.0000     band energies (ev):

   -15.6808 -15.4183 -10.9676 -10.7440  -9.3997  -9.1789  -3.5477  -2.6479
     2.2135   2.6412   8.8088   9.1000

     occupation numbers 
     1.0000   1.0000   1.0000   1.0000   1.0000   1.0000   1.0000   1.0000
     0.0000   0.0000   0.0000   0.0000

          k =-0.3333 0.4811 0.0000     band energies (ev):

   -14.2546 -14.0059 -12.3894 -12.1571 -10.1085  -9.8814  -2.0675  -1.4070
     0.7339   1.1272  10.2522  10.5894

     occupation numbers 
     1.0000   1.0000   1.0000   1.0000   1.0000   1.0000   1.0000   1.0000
     0.0000   0.0000   0.0000   0.0000

          k = 0.5833 0.0481 0.0000     band energies (ev):

   -14.2546 -14.0059 -12.3892 -12.1569 -10.1087  -9.8816  -2.0677  -1.4072
     0.7342   1.1276  10.2522  10.5894

     occupation numbers 
     1.0000   1.0000   1.0000   1.0000   1.0000   1.0000   1.0000   1.0000
     0.0000   0.0000   0.0000   0.0000

     the Fermi energy is    -0.3913 ev

!    total energy              =     -45.57618957 Ry
     Harris-Foulkes estimate   =     -45.57725885 Ry
     estimated scf accuracy    <       0.00289409 Ry

     The total energy is the sum of the following terms:

     one-electron contribution =    -550.94342575 Ry
     hartree contribution      =     278.98843163 Ry
     xc contribution           =     -14.03009977 Ry
     ewald contribution        =     240.51192491 Ry
     scf correction            =      -0.10302059 Ry
     smearing contrib. (-TS)   =       0.00000000 Ry

     iteration #  5     ecut=    40.00 Ry     beta=0.30
     Davidson diagonalization with overlap
     ethr =  1.81E-05,  avg # of iterations =  4.7

     negative rho (up, down):  3.201E-05 0.000E+00

     total cpu time spent up to now is       34.2 secs

          k = 0.0000 0.0000 0.0000     band energies (ev):

   -20.2890 -19.6795  -8.7291  -7.4442  -3.8766  -3.8750  -3.2775  -3.2759
     2.8253   3.4091   3.9140   5.0975

     occupation numbers 
     1.0000   1.0000   1.0000   1.0000   1.0000   1.0000   1.0000   1.0000
     0.0000   0.0000   0.0000   0.0000

          k = 0.0000 0.0962 0.0000     band energies (ev):

   -20.1252 -19.5162  -8.5310  -7.2525  -4.5218  -4.2111  -3.9239  -3.6124
     3.0468   3.6323   4.1399   5.3218

     occupation numbers 
     1.0000   1.0000   1.0000   1.0000   1.0000   1.0000   1.0000   1.0000
     0.0000   0.0000   0.0000   0.0000

          k = 0.0000 0.1925 0.0000     band energies (ev):

   -19.6355 -19.0279  -7.9414  -6.6835  -6.1477  -5.5521  -4.9985  -4.4007
     3.7109   4.3007   4.8175   5.9923

     occupation numbers 
     1.0000   1.0000   1.0000   1.0000   1.0000   1.0000   1.0000   1.0000
     0.0000   0.0000   0.0000   0.0000

          k = 0.0000 0.2887 0.0000     band energies (ev):

   -18.8260 -18.2204  -8.2345  -7.6401  -6.9772  -5.8732  -5.7585  -5.2762
     4.8112   5.3995   5.9452   6.3588

     occupation numbers 
     1.0000   1.0000   1.0000   1.0000   1.0000   1.0000   1.0000   1.0000
     0.0000   0.0000   0.0000   0.0000

          k = 0.0000 0.3849 0.0000     band energies (ev):

   -17.7087 -17.1058 -10.4280  -9.8337  -6.6026  -6.0062  -5.6831  -4.5360
     3.9907   4.7695   6.3431   6.8786

     occupation numbers 
     1.0000   1.0000   1.0000   1.0000   1.0000   1.0000   1.0000   1.0000
     0.0000   0.0000   0.0000   0.0000

          k = 0.0000 0.4811 0.0000     band energies (ev):

   -16.3150 -15.7154 -12.5205 -11.9257  -7.0731  -6.4770  -4.1990  -3.2135
     1.8650   2.6720   6.6304   7.2505

     occupation numbers 
     1.0000   1.0000   1.0000   1.0000   1.0000   1.0000   1.0000   1.0000
     0.0000   0.0000   0.0000   0.0000

          k = 0.0000-0.5774 0.0000     band energies (ev):

   -15.0511 -14.4700 -14.0086 -13.4294  -7.2347  -6.6387  -3.2407  -2.5535
     0.8797   1.5362   6.5477   7.1738

     occupation numbers 
     1.0000   1.0000   1.0000   1.0000   1.0000   1.0000   1.0000   1.0000
     0.0000   0.0000   0.0000   0.0000

          k = 0.0833 0.1443 0.0000     band energies (ev):

   -19.7985 -19.1904  -8.1370  -6.8721  -5.5475  -4.9542  -4.8812  -4.2866
     3.4900   4.0785   4.5918   5.7693

     occupation numbers 
     1.0000   1.0000   1.0000   1.0000   1.0000   1.0000   1.0000   1.0000
     0.0000   0.0000   0.0000   0.0000

          k = 0.0833 0.2406 0.0000     band energies (ev):

   -19.1488 -18.5425  -7.3596  -7.2467  -6.6528  -6.1235  -5.8751  -5.2793
     4.3742   4.9671   5.4955   6.6600

     occupation numbers 
     1.0000   1.0000   1.0000   1.0000   1.0000   1.0000   1.0000   1.0000
     0.0000   0.0000   0.0000   0.0000

          k = 0.0833 0.3368 0.0000     band energies (ev):

   -18.1853 -17.5813  -9.3097  -8.7159  -6.7568  -6.2247  -6.1612  -5.0418
     5.0292   5.7042   5.7341   6.3139

     occupation numbers 
     1.0000   1.0000   1.0000   1.0000   1.0000   1.0000   1.0000   1.0000
     0.0000   0.0000   0.0000   0.0000

          k = 0.0833 0.4330 0.0000     band energies (ev):

   -16.9268 -16.3256 -11.4241 -10.8298  -7.3885  -6.7933  -4.8071  -3.7260
     2.8085   3.5882   7.3479   7.5441

     occupation numbers 
     1.0000   1.0000   1.0000   1.0000   1.0000   1.0000   1.0000   1.0000
     0.0000   0.0000   0.0000   0.0000

          k = 0.0833 0.5292 0.0000     band energies (ev):

   -15.4493 -14.8533 -13.3576 -12.7645  -7.7154  -7.1202  -3.3987  -2.5789
     1.1101   1.8195   7.2775   7.9073

     occupation numbers 
     1.0000   1.0000   1.0000   1.0000   1.0000   1.0000   1.0000   1.0000
     0.0000   0.0000   0.0000   0.0000

          k = 0.1667 0.2887 0.0000     band energies (ev):

   -18.3452 -17.7408  -8.5697  -7.9784  -7.2274  -6.6353  -6.4075  -5.2135
     5.4744   5.5115   6.0695   6.1452

     occupation numbers 
     1.0000   1.0000   1.0000   1.0000   1.0000   1.0000   1.0000   1.0000
     0.0000   0.0000   0.0000   0.0000

          k = 0.1667 0.3849 0.0000     band energies (ev):

   -17.2389 -16.6371 -10.2896  -9.6975  -8.2789  -7.6865  -5.1285  -4.0059
     3.5547   4.2275   7.0042   7.5999

     occupation numbers 
     1.0000   1.0000   1.0000   1.0000   1.0000   1.0000   1.0000   1.0000
     0.0000   0.0000   0.0000   0.0000

          k = 0.1667 0.4811 0.0000     band energies (ev):

   -15.8653 -15.2666 -12.1934 -11.5998  -8.8529  -8.2596  -3.6458  -2.6704
     1.6448   2.3549   8.8921   9.1684

     occupation numbers 
     1.0000   1.0000   1.0000   1.0000   1.0000   1.0000   1.0000   1.0000
     0.0000   0.0000   0.0000   0.0000

          k = 0.1667 0.5774 0.0000     band energies (ev):

   -14.6309 -14.0494 -13.6112 -13.0319  -9.0370  -8.4435  -2.6449  -1.9640
     0.6952   1.2495   9.0447   9.6962

     occupation numbers 
     1.0000   1.0000   1.0000   1.0000   1.0000   1.0000   1.0000   1.0000
     0.0000   0.0000   0.0000   0.0000

          k = 0.2500 0.4330 0.0000     band energies (ev):

   -16.0128 -15.4135 -11.3198 -10.7314  -9.7522  -9.1644  -3.7493  -2.7233
     1.9525   2.6141   8.6939   9.2282

     occupation numbers 
     1.0000   1.0000   1.0000   1.0000   1.0000   1.0000   1.0000   1.0000
     0.0000   0.0000   0.0000   0.0000

          k = 0.2500 0.5292 0.0000     band energies (ev):

   -14.5929 -13.9981 -12.7358 -12.1457 -10.4584  -9.8685  -2.2902  -1.4670
     0.4728   1.1050  10.1067  10.5199

     occupation numbers 
     1.0000   1.0000   1.0000   1.0000   1.0000   1.0000   1.0000   1.0000
     0.0000   0.0000   0.0000   0.0000

          k = 0.3333 0.5774 0.0000     band energies (ev):

   -13.3783 -13.3776 -12.7902 -12.7838 -11.3463 -10.7628  -1.0018  -0.8100
    -0.2430  -0.0188   9.8915  10.2481

     occupation numbers 
     1.0000   1.0000   1.0000   1.0000   1.0000   1.0000   1.0000   1.0000
     0.0000   0.0000   0.0000   0.0000

          k =-0.0833 0.0481 0.0000     band energies (ev):

   -20.1252 -19.5162  -8.5310  -7.2525  -4.5207  -4.2122  -3.9228  -3.6135
     3.0468   3.6324   4.1399   5.3217

     occupation numbers 
     1.0000   1.0000   1.0000   1.0000   1.0000   1.0000   1.0000   1.0000
     0.0000   0.0000   0.0000   0.0000

          k =-0.1667 0.0962 0.0000     band energies (ev):

   -19.6355 -19.0279  -7.9414  -6.6836  -6.1469  -5.5512  -4.9994  -4.4016
     3.7109   4.3007   4.8175   5.9921

     occupation numbers 
     1.0000   1.0000   1.0000   1.0000   1.0000   1.0000   1.0000   1.0000
     0.0000   0.0000   0.0000   0.0000

          k =-0.2500 0.1443 0.0000     band energies (ev):

   -18.8259 -18.2204  -8.2339  -7.6396  -6.9772  -5.8739  -5.7586  -5.2769
     4.8111   5.3995   5.9451   6.3594

     occupation numbers 
     1.0000   1.0000   1.0000   1.0000   1.0000   1.0000   1.0000   1.0000
     0.0000   0.0000   0.0000   0.0000

          k =-0.3333 0.1925 0.0000     band energies (ev):

   -17.7087 -17.1058 -10.4275  -9.8332  -6.6032  -6.0068  -5.6833  -4.5362
     3.9912   4.7699   6.3430   6.8783

     occupation numbers 
     1.0000   1.0000   1.0000   1.0000   1.0000   1.0000   1.0000   1.0000
     0.0000   0.0000   0.0000   0.0000

          k =-0.4167 0.2406 0.0000     band energies (ev):

   -16.3150 -15.7154 -12.5200 -11.9253  -7.0737  -6.4776  -4.1993  -3.2139
     1.8657   2.6726   6.6301   7.2502

     occupation numbers 
     1.0000   1.0000   1.0000   1.0000   1.0000   1.0000   1.0000   1.0000
     0.0000   0.0000   0.0000   0.0000

          k = 0.5000-0.2887 0.0000     band energies (ev):

   -15.0514 -14.4703 -14.0079 -13.4287  -7.2353  -6.6393  -3.2413  -2.5540
     0.8806   1.5372   6.5475   7.1735

     occupation numbers 
     1.0000   1.0000   1.0000   1.0000   1.0000   1.0000   1.0000   1.0000
     0.0000   0.0000   0.0000   0.0000

          k = 0.1667-0.0000 0.0000     band energies (ev):

   -19.7985 -19.1904  -8.1370  -6.8721  -5.5465  -4.9533  -4.8823  -4.2877
     3.4899   4.0783   4.5918   5.7694

     occupation numbers 
     1.0000   1.0000   1.0000   1.0000   1.0000   1.0000   1.0000   1.0000
     0.0000   0.0000   0.0000   0.0000

          k =-0.1667 0.1925 0.0000     band energies (ev):

   -19.1488 -18.5425  -7.3596  -7.2462  -6.6524  -6.1235  -5.8756  -5.2798
     4.3742   4.9671   5.4954   6.6599

     occupation numbers 
     1.0000   1.0000   1.0000   1.0000   1.0000   1.0000   1.0000   1.0000
     0.0000   0.0000   0.0000   0.0000

          k = 0.2500 0.0481 0.0000     band energies (ev):

   -19.1488 -18.5425  -7.3597  -7.2458  -6.6519  -6.1235  -5.8761  -5.2803
     4.3742   4.9672   5.4955   6.6599

     occupation numbers 
     1.0000   1.0000   1.0000   1.0000   1.0000   1.0000   1.0000   1.0000
     0.0000   0.0000   0.0000   0.0000

          k =-0.2500 0.2406 0.0000     band energies (ev):

[...]

     occupation numbers 
     1.0000   1.0000   1.0000   1.0000   1.0000   1.0000   1.0000   1.0000
     0.0000   0.0000   0.0000   0.0000

          k = 0.0000-0.5774 0.0000 (  3052 PWs)   bands (ev):

   -14.7919 -14.7149 -13.7428 -13.6853  -6.9521  -6.9123  -3.1114  -2.6727
     1.0136   1.4151   6.7396   6.9996

     occupation numbers 
     1.0000   1.0000   1.0000   1.0000   1.0000   1.0000   1.0000   1.0000
     0.0000   0.0000   0.0000   0.0000

          k = 0.0833 0.1443 0.0000 (  3051 PWs)   bands (ev):

   -19.5857 -19.3901  -8.0733  -6.9249  -5.2557  -5.2325  -4.5881  -4.5709
     3.6338   4.0143   4.7386   5.8814

     occupation numbers 
     1.0000   1.0000   1.0000   1.0000   1.0000   1.0000   1.0000   1.0000
     0.0000   0.0000   0.0000   0.0000

          k = 0.0833 0.2406 0.0000 (  3045 PWs)   bands (ev):

   -18.9332 -18.7453  -7.2941  -6.9681  -6.9203  -6.1782  -5.5879  -5.5563
     4.5165   4.9015   5.6430   6.7716

     occupation numbers 
     1.0000   1.0000   1.0000   1.0000   1.0000   1.0000   1.0000   1.0000
     0.0000   0.0000   0.0000   0.0000

          k = 0.0833 0.3368 0.0000 (  3033 PWs)   bands (ev):

   -17.9653 -17.7886  -9.0454  -8.9689  -6.4751  -6.4331  -6.1560  -5.1002
     5.1665   5.6104   5.8386   6.2509

     occupation numbers 
     1.0000   1.0000   1.0000   1.0000   1.0000   1.0000   1.0000   1.0000
     0.0000   0.0000   0.0000   0.0000

          k = 0.0833 0.4330 0.0000 (  3041 PWs)   bands (ev):

   -16.7007 -16.5393 -11.1713 -11.0711  -7.1094  -7.0627  -4.7313  -3.7920
     2.9236   3.4861   7.5159   7.6584

     occupation numbers 
     1.0000   1.0000   1.0000   1.0000   1.0000   1.0000   1.0000   1.0000
     0.0000   0.0000   0.0000   0.0000

          k = 0.0833 0.5292 0.0000 (  3043 PWs)   bands (ev):

   -15.2126 -15.0782 -13.1098 -13.0001  -7.4373  -7.3887  -3.2955  -2.6724
     1.2338   1.7084   7.4669   7.7346

     occupation numbers 
     1.0000   1.0000   1.0000   1.0000   1.0000   1.0000   1.0000   1.0000
     0.0000   0.0000   0.0000   0.0000

          k = 0.1667 0.2887 0.0000 (  3039 PWs)   bands (ev):

   -18.1259 -17.9474  -8.2877  -8.2492  -6.9402  -6.9122  -6.3396  -5.2710
     5.6120   5.6847   5.9641   6.0254

     occupation numbers 
     1.0000   1.0000   1.0000   1.0000   1.0000   1.0000   1.0000   1.0000
     0.0000   0.0000   0.0000   0.0000

          k = 0.1667 0.3849 0.0000 (  3045 PWs)   bands (ev):

   -17.0145 -16.8491 -10.0240  -9.9519  -8.0026  -7.9523  -5.0557  -4.0687
     3.7002   4.0936   7.1443   7.5259

     occupation numbers 
     1.0000   1.0000   1.0000   1.0000   1.0000   1.0000   1.0000   1.0000
     0.0000   0.0000   0.0000   0.0000

          k = 0.1667 0.4811 0.0000 (  3041 PWs)   bands (ev):

   -15.6335 -15.4864 -11.9412 -11.8403  -8.5826  -8.5194  -3.5607  -2.7459
     1.7743   2.2368   9.0485   9.2539

     occupation numbers 
     1.0000   1.0000   1.0000   1.0000   1.0000   1.0000   1.0000   1.0000
     0.0000   0.0000   0.0000   0.0000

          k = 0.1667 0.5774 0.0000 (  3008 PWs)   bands (ev):

   -14.3700 -14.2960 -13.3421 -13.2915  -8.7681  -8.7020  -2.5148  -2.0832
     0.8842   1.0702   9.2120   9.5482

     occupation numbers 
     1.0000   1.0000   1.0000   1.0000   1.0000   1.0000   1.0000   1.0000
     0.0000   0.0000   0.0000   0.0000

          k = 0.2500 0.4330 0.0000 (  3033 PWs)   bands (ev):

   -15.7821 -15.6322 -11.0464 -10.9935  -9.4721  -9.4333  -3.6686  -2.7943
     2.1000   2.4771   8.8558   9.1246

     occupation numbers 
     1.0000   1.0000   1.0000   1.0000   1.0000   1.0000   1.0000   1.0000
     0.0000   0.0000   0.0000   0.0000

          k = 0.2500 0.5292 0.0000 (  3013 PWs)   bands (ev):

   -14.3513 -14.2281 -12.4769 -12.3932 -10.1905 -10.1247  -2.1873  -1.5591
     0.6231   0.9631  10.2236  10.5127

     occupation numbers 
     1.0000   1.0000   1.0000   1.0000   1.0000   1.0000   1.0000   1.0000
     0.0000   0.0000   0.0000   0.0000

          k = 0.3333 0.5774 0.0000 (  3027 PWs)   bands (ev):

   -13.1440 -13.0752 -13.0752 -13.0132 -11.0483 -11.0483  -0.9245  -0.5216
    -0.5215  -0.0875  10.0981  10.0982

     occupation numbers 
     1.0000   1.0000   1.0000   1.0000   1.0000   1.0000   1.0000   0.5243
     0.4757   0.0000   0.0000   0.0000

          k =-0.0833 0.0481 0.0000 (  3052 PWs)   bands (ev):

   -19.9139 -19.7144  -8.4680  -7.3046  -4.2279  -4.2038  -3.9173  -3.8968
     3.1917   3.5688   4.2863   5.4335

     occupation numbers 
     1.0000   1.0000   1.0000   1.0000   1.0000   1.0000   1.0000   1.0000
     0.0000   0.0000   0.0000   0.0000

          k =-0.1667 0.0962 0.0000 (  3050 PWs)   bands (ev):

   -19.4221 -19.2284  -7.8773  -6.7369  -5.8662  -5.8207  -4.7096  -4.6806
     3.8543   4.2364   4.9645   6.1041

     occupation numbers 
     1.0000   1.0000   1.0000   1.0000   1.0000   1.0000   1.0000   1.0000
     0.0000   0.0000   0.0000   0.0000

          k =-0.2500 0.1443 0.0000 (  3048 PWs)   bands (ev):

   -18.6088 -18.4247  -7.9657  -7.8964  -6.9109  -5.8144  -5.5877  -5.5532
     4.9544   5.3313   6.0930   6.5066

     occupation numbers 
     1.0000   1.0000   1.0000   1.0000   1.0000   1.0000   1.0000   1.0000
     0.0000   0.0000   0.0000   0.0000

          k =-0.3333 0.1925 0.0000 (  3042 PWs)   bands (ev):

   -17.4865 -17.3154 -10.1708 -10.0785  -6.3191  -6.2815  -5.6123  -4.5971
     4.1079   4.6674   6.4755   6.8830

     occupation numbers 
     1.0000   1.0000   1.0000   1.0000   1.0000   1.0000   1.0000   1.0000
     0.0000   0.0000   0.0000   0.0000

          k =-0.4167 0.2406 0.0000 (  3054 PWs)   bands (ev):

   -16.0856 -15.9327 -12.2724 -12.1610  -6.7906  -6.7515  -4.1155  -3.2881
     1.9733   2.5785   6.8247   7.0719

     occupation numbers 
     1.0000   1.0000   1.0000   1.0000   1.0000   1.0000   1.0000   1.0000
     0.0000   0.0000   0.0000   0.0000

          k = 0.5000-0.2887 0.0000 (  3052 PWs)   bands (ev):

   -14.7922 -14.7152 -13.7422 -13.6846  -6.9526  -6.9128  -3.1120  -2.6733
     1.0144   1.4161   6.7394   6.9994

     occupation numbers 
     1.0000   1.0000   1.0000   1.0000   1.0000   1.0000   1.0000   1.0000
     0.0000   0.0000   0.0000   0.0000

          k = 0.1667-0.0000 0.0000 (  3051 PWs)   bands (ev):

   -19.5857 -19.3901  -8.0733  -6.9250  -5.2547  -5.2315  -4.5892  -4.5720
     3.6338   4.0143   4.7386   5.8814

     occupation numbers 
     1.0000   1.0000   1.0000   1.0000   1.0000   1.0000   1.0000   1.0000
     0.0000   0.0000   0.0000   0.0000

          k =-0.1667 0.1925 0.0000 (  3045 PWs)   bands (ev):

   -18.9332 -18.7452  -7.2942  -6.9676  -6.9199  -6.1782  -5.5883  -5.5568
     4.5165   4.9015   5.6430   6.7716

     occupation numbers 
     1.0000   1.0000   1.0000   1.0000   1.0000   1.0000   1.0000   1.0000
     0.0000   0.0000   0.0000   0.0000

          k = 0.2500 0.0481 0.0000 (  3045 PWs)   bands (ev):

   -18.9332 -18.7452  -7.2942  -6.9672  -6.9194  -6.1783  -5.5888  -5.5573
     4.5165   4.9015   5.6430   6.7715

     occupation numbers 
     1.0000   1.0000   1.0000   1.0000   1.0000   1.0000   1.0000   1.0000
     0.0000   0.0000   0.0000   0.0000

          k =-0.2500 0.2406 0.0000 (  3033 PWs)   bands (ev):

   -17.9652 -17.7886  -9.0450  -8.9685  -6.4756  -6.4336  -6.1561  -5.1002
     5.1668   5.6106   5.8386   6.2510

     occupation numbers 
     1.0000   1.0000   1.0000   1.0000   1.0000   1.0000   1.0000   1.0000
     0.0000   0.0000   0.0000   0.0000

          k = 0.3333 0.0962 0.0000 (  3033 PWs)   bands (ev):

   -17.9652 -17.7886  -9.0448  -8.9683  -6.4758  -6.4338  -6.1561  -5.1003
     5.1670   5.6108   5.8386   6.2510

     occupation numbers 
     1.0000   1.0000   1.0000   1.0000   1.0000   1.0000   1.0000   1.0000
     0.0000   0.0000   0.0000   0.0000

          k =-0.3333 0.2887 0.0000 (  3041 PWs)   bands (ev):

   -16.7007 -16.5392 -11.1709 -11.0707  -7.1099  -7.0632  -4.7314  -3.7922
     2.9241   3.4865   7.5159   7.6582

     occupation numbers 
     1.0000   1.0000   1.0000   1.0000   1.0000   1.0000   1.0000   1.0000
     0.0000   0.0000   0.0000   0.0000

          k = 0.4167 0.1443 0.0000 (  3041 PWs)   bands (ev):

   -16.7007 -16.5392 -11.1708 -11.0706  -7.1100  -7.0633  -4.7315  -3.7923
     2.9243   3.4866   7.5158   7.6581

     occupation numbers 
     1.0000   1.0000   1.0000   1.0000   1.0000   1.0000   1.0000   1.0000
     0.0000   0.0000   0.0000   0.0000

          k =-0.4167 0.3368 0.0000 (  3043 PWs)   bands (ev):

   -15.2126 -15.0783 -13.1093 -12.9996  -7.4378  -7.3892  -3.2959  -2.6729
     1.2346   1.7092   7.4666   7.7344

     occupation numbers 
     1.0000   1.0000   1.0000   1.0000   1.0000   1.0000   1.0000   1.0000
     0.0000   0.0000   0.0000   0.0000

          k = 0.5000 0.1925 0.0000 (  3043 PWs)   bands (ev):

   -15.2126 -15.0783 -13.1093 -12.9996  -7.4378  -7.3893  -3.2960  -2.6729
     1.2346   1.7093   7.4666   7.7344

     occupation numbers 
     1.0000   1.0000   1.0000   1.0000   1.0000   1.0000   1.0000   1.0000
     0.0000   0.0000   0.0000   0.0000

          k = 0.3333-0.0000 0.0000 (  3039 PWs)   bands (ev):

   -18.1259 -17.9474  -8.2869  -8.2485  -6.9410  -6.9131  -6.3397  -5.2711
     5.6121   5.6851   5.9643   6.0255

     occupation numbers 
     1.0000   1.0000   1.0000   1.0000   1.0000   1.0000   1.0000   1.0000
     0.0000   0.0000   0.0000   0.0000

          k =-0.2500 0.3368 0.0000 (  3045 PWs)   bands (ev):

   -17.0145 -16.8491 -10.0237  -9.9516  -8.0030  -7.9526  -5.0557  -4.0687
     3.7004   4.0937   7.1443   7.5259

     occupation numbers 
     1.0000   1.0000   1.0000   1.0000   1.0000   1.0000   1.0000   1.0000
     0.0000   0.0000   0.0000   0.0000

          k = 0.4167 0.0481 0.0000 (  3045 PWs)   bands (ev):

   -17.0145 -16.8491 -10.0234  -9.9513  -8.0033  -7.9530  -5.0558  -4.0688
     3.7008   4.0940   7.1443   7.5259

     occupation numbers 
     1.0000   1.0000   1.0000   1.0000   1.0000   1.0000   1.0000   1.0000
     0.0000   0.0000   0.0000   0.0000

          k =-0.3333 0.3849 0.0000 (  3041 PWs)   bands (ev):

   -15.6335 -15.4864 -11.9409 -11.8400  -8.5830  -8.5199  -3.5609  -2.7462
     1.7748   2.2371   9.0485   9.2538

     occupation numbers 
     1.0000   1.0000   1.0000   1.0000   1.0000   1.0000   1.0000   1.0000
     0.0000   0.0000   0.0000   0.0000

          k = 0.5000 0.0962 0.0000 (  3041 PWs)   bands (ev):

   -15.6335 -15.4864 -11.9408 -11.8399  -8.5831  -8.5200  -3.5611  -2.7463
     1.7751   2.2374   9.0484   9.2536

     occupation numbers 
     1.0000   1.0000   1.0000   1.0000   1.0000   1.0000   1.0000   1.0000
     0.0000   0.0000   0.0000   0.0000

          k =-0.4167 0.4330 0.0000 (  3008 PWs)   bands (ev):

   -14.3704 -14.2963 -13.3415 -13.2908  -8.7686  -8.7024  -2.5154  -2.0837
     0.8850   1.0711   9.2117   9.5479

     occupation numbers 
     1.0000   1.0000   1.0000   1.0000   1.0000   1.0000   1.0000   1.0000
     0.0000   0.0000   0.0000   0.0000

          k = 0.5000 0.0000 0.0000 (  3033 PWs)   bands (ev):

   -15.7821 -15.6322 -11.0458 -10.9930  -9.4727  -9.4339  -3.6688  -2.7946
     2.1005   2.4775   8.8558   9.1246

     occupation numbers 
     1.0000   1.0000   1.0000   1.0000   1.0000   1.0000   1.0000   1.0000
     0.0000   0.0000   0.0000   0.0000

          k =-0.3333 0.4811 0.0000 (  3013 PWs)   bands (ev):

   -14.3513 -14.2282 -12.4765 -12.3929 -10.1908 -10.1251  -2.1876  -1.5594
     0.6236   0.9634  10.2235  10.5126

     occupation numbers 
     1.0000   1.0000   1.0000   1.0000   1.0000   1.0000   1.0000   1.0000
     0.0000   0.0000   0.0000   0.0000

          k = 0.5833 0.0481 0.0000 (  3013 PWs)   bands (ev):

   -14.3514 -14.2282 -12.4763 -12.3927 -10.1910 -10.1252  -2.1878  -1.5596
     0.6239   0.9637  10.2234  10.5124

     occupation numbers 
     1.0000   1.0000   1.0000   1.0000   1.0000   1.0000   1.0000   1.0000
     0.0000   0.0000   0.0000   0.0000

     the Fermi energy is    -0.5214 ev

!    total energy              =     -45.57701921 Ry
     Harris-Foulkes estimate   =     -45.57701921 Ry
     estimated scf accuracy    <          2.1E-12 Ry

     The total energy is the sum of the following terms:

     one-electron contribution =    -551.04981155 Ry
     hartree contribution      =     278.99571862 Ry
     xc contribution           =     -14.03485027 Ry
     ewald contribution        =     240.51192491 Ry
     smearing contrib. (-TS)   =      -0.00000091 Ry

     convergence has been achieved in  41 iterations

     Forces acting on atoms (Ry/au):

     atom    1 type  1   force =     0.00000000   -0.00008762   -0.00396022
     atom    2 type  1   force =     0.00000000    0.00010873   -0.00258093
     atom    3 type  1   force =     0.00000000    0.00008667    0.00396056
     atom    4 type  1   force =     0.00000000   -0.00010778    0.00258060
     The non-local contrib.  to forces
     atom    1 type  1   force =     0.00000000   -0.00003185   -0.00236446
     atom    2 type  1   force =     0.00000000    0.00003818   -0.00082237
     atom    3 type  1   force =     0.00000000    0.00002785    0.00234470
     atom    4 type  1   force =     0.00000000   -0.00004030    0.00080188
     The ionic contribution  to forces
     atom    1 type  1   force =    -0.00000000   -0.00037385  -14.45429315
     atom    2 type  1   force =     0.00000000    0.00037309  -14.46150519
     atom    3 type  1   force =     0.00000000    0.00037385   14.45429315
     atom    4 type  1   force =     0.00000000   -0.00037309   14.46150519
     The local contribution  to forces
     atom    1 type  1   force =     0.00000000    0.00031657   14.45268557
     atom    2 type  1   force =    -0.00000000   -0.00030403   14.45973479
     atom    3 type  1   force =    -0.00000000   -0.00031650  -14.45268913
     atom    4 type  1   force =     0.00000000    0.00030412  -14.45973832
     The core correction contribution to forces
     atom    1 type  1   force =     0.00000000    0.00000000    0.00000000
     atom    2 type  1   force =     0.00000000    0.00000000    0.00000000
     atom    3 type  1   force =     0.00000000    0.00000000    0.00000000
     atom    4 type  1   force =     0.00000000    0.00000000    0.00000000
     The Hubbard contrib.    to forces
     atom    1 type  1   force =     0.00000000    0.00000000    0.00000000
     atom    2 type  1   force =     0.00000000    0.00000000    0.00000000
     atom    3 type  1   force =     0.00000000    0.00000000    0.00000000
     atom    4 type  1   force =     0.00000000    0.00000000    0.00000000
     The SCF correction term to forces
     atom    1 type  1   force =     0.00000000    0.00000001    0.00000168
     atom    2 type  1   force =    -0.00000000   -0.00000000    0.00000169
     atom    3 type  1   force =    -0.00000000   -0.00000001    0.00000169
     atom    4 type  1   force =     0.00000000    0.00000000    0.00000170

     Total force =     0.006688     Total SCF correction =     0.000003


     entering subroutine stress ...

          total   stress  (Ry/bohr**3)                   (kbar)     P=   -4.04
  -0.00006636   0.00000000   0.00000000         -9.76      0.00      0.00
   0.00000000  -0.00006600  -0.00000016          0.00     -9.71     -0.02
   0.00000000  -0.00000016   0.00005003          0.00     -0.02      7.36

     kinetic stress (kbar)   3525.96      0.00      0.00
                                0.00   3525.87     -0.03
                                0.00     -0.03   4090.03

     local   stress (kbar)-117710.83      0.00      0.00
                                0.00-117711.52     -0.00
                                0.00     -0.00 120037.41

     nonloc. stress (kbar)   -152.36      0.00      0.00
                                0.00   -152.35      0.00
                                0.00      0.00   -151.60

     hartree stress (kbar)  57332.48     -0.00     -0.00
                               -0.00  57332.58      0.00
                               -0.00      0.00 -56989.90

     exc-cor stress (kbar)   -891.70      0.00     -0.00
                                0.00   -891.69      0.00
                               -0.00      0.00   -924.11

     corecor stress (kbar)      0.00      0.00      0.00
                                0.00      0.00      0.00
                                0.00      0.00      0.00

     ewald   stress (kbar)  57886.69      0.00      0.00
                                0.00  57887.41      0.00
                                0.00      0.00 -66054.47

     hubbard stress (kbar)      0.00      0.00      0.00
                                0.00      0.00      0.00
                                0.00      0.00      0.00

     london  stress (kbar)      0.00      0.00      0.00
                                0.00      0.00      0.00
                                0.00      0.00      0.00

     XDM     stress (kbar)      0.00      0.00      0.00
                                0.00      0.00      0.00
                                0.00      0.00      0.00

     dft-nl  stress (kbar)      0.00      0.00      0.00
                                0.00      0.00      0.00
                                0.00      0.00      0.00



     Writing output data file graphene.save

     init_run     :      3.40s CPU      3.46s WALL (       1 calls)
     electrons    :    213.94s CPU    215.77s WALL (       1 calls)
     forces       :      1.90s CPU      1.92s WALL (       1 calls)
     stress       :      4.07s CPU      4.11s WALL (       1 calls)

     Called by init_run:
     wfcinit      :      2.24s CPU      2.27s WALL (       1 calls)
     potinit      :      0.38s CPU      0.40s WALL (       1 calls)

     Called by electrons:
     c_bands      :    151.16s CPU    152.10s WALL (      41 calls)
     sum_band     :     39.56s CPU     39.92s WALL (      41 calls)
     v_of_rho     :      9.64s CPU     10.09s WALL (      42 calls)
     v_h          :      0.55s CPU      0.56s WALL (      42 calls)
     v_xc         :      9.09s CPU      9.53s WALL (      42 calls)
     newd         :     11.93s CPU     12.02s WALL (      42 calls)
     mix_rho      :      1.30s CPU      1.30s WALL (      41 calls)

     Called by c_bands:
     init_us_2    :      4.64s CPU      4.67s WALL (    3655 calls)
     cegterg      :    143.76s CPU    144.62s WALL (    1763 calls)

     Called by sum_band:
     sum_band:bec :      0.03s CPU      0.03s WALL (    1763 calls)
     addusdens    :      9.93s CPU     10.12s WALL (      41 calls)

     Called by *egterg:
     h_psi        :     97.19s CPU     97.91s WALL (    4769 calls)
     s_psi        :     14.10s CPU     14.15s WALL (    4769 calls)
     g_psi        :      0.57s CPU      0.57s WALL (    2963 calls)
     cdiaghg      :      1.75s CPU      1.75s WALL (    4726 calls)
     cegterg:over :     12.12s CPU     12.15s WALL (    2963 calls)
     cegterg:upda :      6.71s CPU      6.73s WALL (    2963 calls)
     cegterg:last :      5.29s CPU      5.33s WALL (    1768 calls)

     Called by h_psi:
     h_psi:vloc   :     67.33s CPU     67.91s WALL (    4769 calls)
     h_psi:vnl    :     29.34s CPU     29.48s WALL (    4769 calls)
     add_vuspsi   :     14.09s CPU     14.15s WALL (    4769 calls)

     General routines
     calbec       :     22.50s CPU     22.63s WALL (    6618 calls)
     fft          :      7.43s CPU      7.53s WALL (     676 calls)
     ffts         :      0.07s CPU      0.07s WALL (      83 calls)
     fftw         :     56.75s CPU     57.21s WALL (  113930 calls)
     interpolate  :      1.11s CPU      1.11s WALL (      83 calls)

     Parallel routines
     fft_scatter  :     11.48s CPU     11.60s WALL (  114689 calls)

     PWSCF        :  3m43.59s CPU     3m45.60s WALL


   This run was terminated on:  22:29: 5   4Apr2020            

=------------------------------------------------------------------------------=
   JOB DONE.
=------------------------------------------------------------------------------=
