
     Program PWSCF v.5.1 starts on 30Apr2020 at  6:52:18 

     This program is part of the open-source Quantum ESPRESSO suite
     for quantum simulation of materials; please cite
         "P. Giannozzi et al., J. Phys.:Condens. Matter 21 395502 (2009);
          URL http://www.quantum-espresso.org", 
     in publications or presentations arising from this work. More details at
     http://www.quantum-espresso.org/quote

     Parallel version (MPI), running on     1 processors
     Waiting for input...
     Reading input from standard input

     Current dimensions of program PWSCF are:
     Max number of different atomic species (ntypx) = 10
     Max number of k-points (npk) =  40000
     Max angular momentum in pseudopotentials (lmaxx) =  3

     Subspace diagonalization in iterative solution of the eigenvalue problem:
     a serial algorithm will be used


     G-vector sticks info
     --------------------
     sticks:   dense  smooth     PW     G-vecs:    dense   smooth      PW
     Sum         169     169     63                 1409     1409     321



     bravais-lattice index     =            3
     lattice parameter (alat)  =       5.0000  a.u.
     unit-cell volume          =      62.5000 (a.u.)^3
     number of atoms/cell      =            1
     number of atomic types    =            1
     number of electrons       =        11.00
     number of Kohn-Sham states=           10
     kinetic-energy cutoff     =      30.0000  Ry
     charge density cutoff     =     120.0000  Ry
     convergence threshold     =      1.0E-06
     mixing beta               =       0.7000
     number of iterations used =            8  plain     mixing
     Exchange-correlation      = PBE ( 1  4  3  4 0)

     celldm(1)=   5.000000  celldm(2)=   0.000000  celldm(3)=   0.000000
     celldm(4)=   0.000000  celldm(5)=   0.000000  celldm(6)=   0.000000

     crystal axes: (cart. coord. in units of alat)
               a(1) = (   0.500000   0.500000   0.500000 )  
               a(2) = (  -0.500000   0.500000   0.500000 )  
               a(3) = (  -0.500000  -0.500000   0.500000 )  

     reciprocal axes: (cart. coord. in units 2 pi/alat)
               b(1) = (  1.000000  0.000000  1.000000 )  
               b(2) = ( -1.000000  1.000000  0.000000 )  
               b(3) = (  0.000000 -1.000000  1.000000 )  


     PseudoPot. # 1 for Ag read from file:
     ../pseudo/Ag.pbe-n-rrkjus_psl.1.0.0.UPF
     MD5 check sum: d841cbfac2b0861aec33b46768a516bf
     Pseudo is Ultrasoft + core correction, Zval = 11.0
     Generated using "atomic" code by A. Dal Corso  v.6.2.2
     Using radial grid of 1237 points,  6 beta functions with: 
                l(1) =   0
                l(2) =   0
                l(3) =   1
                l(4) =   1
                l(5) =   2
                l(6) =   2
     Q(r) pseudized with 0 coefficients 


     atomic species   valence    mass     pseudopotential
        Ag            11.00   107.86000     Ag( 1.00)

     48 Sym. Ops., with inversion, found



   Cartesian axes

     site n.     atom                  positions (alat units)
         1           Ag  tau(   1) = (   0.0000000   0.0000000   0.0000000  )

     number of k points=    14  Marzari-Vanderbilt smearing, width (Ry)=  0.0200
                       cart. coord. in units 2pi/alat
        k(    1) = (   0.0000000   0.0000000   0.1666667), wk =   0.0555556
        k(    2) = (   0.0000000  -0.1666667   0.3333333), wk =   0.2222222
        k(    3) = (   0.0000000  -0.3333333   0.5000000), wk =   0.2222222
        k(    4) = (  -0.1666667   0.1666667   0.1666667), wk =   0.0740741
        k(    5) = (  -0.1666667  -0.1666667   0.5000000), wk =   0.2222222
        k(    6) = (  -0.1666667   0.6666667  -0.3333333), wk =   0.2222222
        k(    7) = (  -0.3333333   0.3333333   0.1666667), wk =   0.2222222
        k(    8) = (   0.5000000  -0.5000000   0.1666667), wk =   0.1111111
        k(    9) = (   0.5000000  -0.6666667   0.3333333), wk =   0.2222222
        k(   10) = (   0.0000000   0.0000000   0.5000000), wk =   0.0555556
        k(   11) = (   0.0000000  -0.1666667   0.6666667), wk =   0.2222222
        k(   12) = (  -0.1666667   0.8333333  -0.1666667), wk =   0.0740741
        k(   13) = (   0.5000000  -0.5000000   0.5000000), wk =   0.0185185
        k(   14) = (   0.0000000   0.0000000   0.8333333), wk =   0.0555556

     Dense  grid:     1409 G-vectors     FFT dimensions: (  15,  15,  15)

     Largest allocated arrays     est. size (Mb)     dimensions
        Kohn-Sham Wavefunctions         0.03 Mb     (     180,   10)
        NL pseudopotentials             0.05 Mb     (     180,   18)
        Each V/rho on FFT grid          0.05 Mb     (    3375)
        Each G-vector array             0.01 Mb     (    1409)
        G-vector shells                 0.00 Mb     (      36)
     Largest temporary arrays     est. size (Mb)     dimensions
        Auxiliary wavefunctions         0.11 Mb     (     180,   40)
        Each subspace H/S matrix        0.02 Mb     (      40,   40)
        Each <psi_i|beta_j> matrix      0.00 Mb     (      18,   10)
        Arrays for rho mixing           0.41 Mb     (    3375,    8)

     Initial potential from superposition of free atoms

     starting charge   10.99960, renormalised to   11.00000
     Starting wfc are    9 randomized atomic wfcs +    1 random wfc

     total cpu time spent up to now is        0.4 secs

     per-process dynamical memory:     7.4 Mb

     Self-consistent Calculation

     iteration #  1     ecut=    30.00 Ry     beta=0.70
     Davidson diagonalization with overlap
     ethr =  1.00E-02,  avg # of iterations =  4.4

     Threshold (ethr) on eigenvalues was too large:
     Diagonalizing with lowered threshold

     Davidson diagonalization with overlap
     ethr =  8.50E-05,  avg # of iterations =  1.4

     total cpu time spent up to now is        0.5 secs

     total energy              =     -83.78684288 Ry
     Harris-Foulkes estimate   =     -83.79083684 Ry
     estimated scf accuracy    <       0.00960819 Ry

     iteration #  2     ecut=    30.00 Ry     beta=0.70
     Davidson diagonalization with overlap
     ethr =  8.73E-05,  avg # of iterations =  1.9

     total cpu time spent up to now is        0.6 secs

     total energy              =     -83.78829702 Ry
     Harris-Foulkes estimate   =     -83.78893136 Ry
     estimated scf accuracy    <       0.00112584 Ry

     iteration #  3     ecut=    30.00 Ry     beta=0.70
     Davidson diagonalization with overlap
     ethr =  1.02E-05,  avg # of iterations =  2.0

     total cpu time spent up to now is        0.6 secs

     total energy              =     -83.78856864 Ry
     Harris-Foulkes estimate   =     -83.78858678 Ry
     estimated scf accuracy    <       0.00008783 Ry

     iteration #  4     ecut=    30.00 Ry     beta=0.70
     Davidson diagonalization with overlap
     ethr =  7.98E-07,  avg # of iterations =  1.8

     total cpu time spent up to now is        0.6 secs

     End of self-consistent calculation

          k = 0.0000 0.0000 0.1667 (   173 PWs)   bands (ev):

    15.8833  19.9904  19.9904  20.2602  22.7444  23.7055  49.6319  51.0649
    51.0649  57.0703

          k = 0.0000-0.1667 0.3333 (   172 PWs)   bands (ev):

    17.4178  19.0928  20.5352  22.1935  22.7600  24.2959  47.2139  48.5818
    53.4177  56.9320

          k = 0.0000-0.3333 0.5000 (   174 PWs)   bands (ev):

    16.5401  18.2291  22.0870  23.1429  25.8904  27.4203  40.1152  45.6082
    50.6286  59.2823

          k =-0.1667 0.1667 0.1667 (   171 PWs)   bands (ev):

    17.1003  19.2200  19.2200  22.5875  23.2261  23.2261  49.2211  49.2211
    51.8381  56.9288

          k =-0.1667-0.1667 0.5000 (   177 PWs)   bands (ev):

    17.8961  18.6311  20.3998  22.2671  24.3937  28.1692  43.7334  44.5444
    52.5556  53.4762

          k =-0.1667 0.6667-0.3333 (   173 PWs)   bands (ev):

    17.4810  18.7283  20.1187  23.0875  25.1519  33.4410  38.1898  42.3126
    50.8908  56.6368

          k =-0.3333 0.3333 0.1667 (   175 PWs)   bands (ev):

    17.3950  18.1803  21.0250  23.2416  23.7549  27.0138  43.4706  45.9615
    50.1864  55.7059

          k = 0.5000-0.5000 0.1667 (   170 PWs)   bands (ev):

    16.7649  17.7727  23.4398  23.5498  24.0042  30.7297  38.3108  44.2524
    47.8503  58.4481

          k = 0.5000-0.6667 0.3333 (   169 PWs)   bands (ev):

    17.6065  18.7548  20.5401  23.7208  24.1052  33.1255  40.5308  40.5481
    46.2123  58.5310

          k = 0.0000 0.0000 0.5000 (   168 PWs)   bands (ev):

    18.7242  19.0409  21.1561  21.1561  22.6596  26.7925  48.3464  49.2493
    49.6424  49.6424

          k = 0.0000-0.1667 0.6667 (   173 PWs)   bands (ev):

    17.3069  18.3849  21.0678  22.3794  25.5075  31.7709  40.9153  45.2648
    48.3458  52.5278

          k =-0.1667 0.8333-0.1667 (   179 PWs)   bands (ev):

    17.1338  17.1338  21.2557  24.9391  24.9391  38.0227  38.0227  39.1724
    51.5997  51.5997

          k = 0.5000-0.5000 0.5000 (   180 PWs)   bands (ev):

    19.0045  19.0045  19.0045  24.0457  24.0457  38.9581  38.9581  38.9581
    39.6763  66.0788

          k = 0.0000 0.0000 0.8333 (   176 PWs)   bands (ev):

    16.0586  16.3015  24.7186  24.7186  25.3526  35.6006  40.2542  40.2542
    49.8746  49.9042

     the Fermi energy is    28.2673 ev

!    total energy              =     -83.78857855 Ry
     Harris-Foulkes estimate   =     -83.78857837 Ry
     estimated scf accuracy    <       0.00000006 Ry

     The total energy is the sum of the following terms:

     one-electron contribution =      18.79903115 Ry
     hartree contribution      =       8.46303899 Ry
     xc contribution           =     -22.98066727 Ry
     ewald contribution        =     -88.06944951 Ry
     smearing contrib. (-TS)   =      -0.00053191 Ry

     convergence has been achieved in   4 iterations

     Writing output data file Ag_exc2.save

     init_run     :      0.23s CPU      0.23s WALL (       1 calls)
     electrons    :      0.21s CPU      0.22s WALL (       1 calls)

     Called by init_run:
     wfcinit      :      0.01s CPU      0.01s WALL (       1 calls)
     potinit      :      0.00s CPU      0.00s WALL (       1 calls)

     Called by electrons:
     c_bands      :      0.14s CPU      0.15s WALL (       5 calls)
     sum_band     :      0.04s CPU      0.04s WALL (       5 calls)
     v_of_rho     :      0.01s CPU      0.01s WALL (       5 calls)
     newd         :      0.02s CPU      0.02s WALL (       5 calls)
     mix_rho      :      0.00s CPU      0.00s WALL (       5 calls)

     Called by c_bands:
     init_us_2    :      0.01s CPU      0.01s WALL (     154 calls)
     cegterg      :      0.13s CPU      0.14s WALL (      70 calls)

     Called by *egterg:
     h_psi        :      0.08s CPU      0.08s WALL (     245 calls)
     s_psi        :      0.01s CPU      0.01s WALL (     245 calls)
     g_psi        :      0.00s CPU      0.00s WALL (     161 calls)
     cdiaghg      :      0.03s CPU      0.03s WALL (     217 calls)

     Called by h_psi:
     add_vuspsi   :      0.01s CPU      0.01s WALL (     245 calls)

     General routines
     calbec       :      0.01s CPU      0.01s WALL (     315 calls)
     fft          :      0.00s CPU      0.00s WALL (      67 calls)
     fftw         :      0.06s CPU      0.06s WALL (    4360 calls)
     davcio       :      0.00s CPU      0.00s WALL (      14 calls)

     Parallel routines
     fft_scatter  :      0.01s CPU      0.01s WALL (    4427 calls)

     PWSCF        :     0.67s CPU         0.68s WALL


   This run was terminated on:   6:52:19  30Apr2020            

=------------------------------------------------------------------------------=
   JOB DONE.
=------------------------------------------------------------------------------=
