
     Program PWSCF v.5.1 starts on 30Apr2020 at  6:45:22 

     This program is part of the open-source Quantum ESPRESSO suite
     for quantum simulation of materials; please cite
         "P. Giannozzi et al., J. Phys.:Condens. Matter 21 395502 (2009);
          URL http://www.quantum-espresso.org", 
     in publications or presentations arising from this work. More details at
     http://www.quantum-espresso.org/quote

     Parallel version (MPI), running on     1 processors
     Waiting for input...
     Reading input from standard input

     Current dimensions of program PWSCF are:
     Max number of different atomic species (ntypx) = 10
     Max number of k-points (npk) =  40000
     Max angular momentum in pseudopotentials (lmaxx) =  3

     Subspace diagonalization in iterative solution of the eigenvalue problem:
     a serial algorithm will be used


     G-vector sticks info
     --------------------
     sticks:   dense  smooth     PW     G-vecs:    dense   smooth      PW
     Sum         333     333    103                 3805     3805     683



     bravais-lattice index     =            3
     lattice parameter (alat)  =       7.0000  a.u.
     unit-cell volume          =     171.5000 (a.u.)^3
     number of atoms/cell      =            1
     number of atomic types    =            1
     number of electrons       =        11.00
     number of Kohn-Sham states=           10
     kinetic-energy cutoff     =      30.0000  Ry
     charge density cutoff     =     120.0000  Ry
     convergence threshold     =      1.0E-06
     mixing beta               =       0.7000
     number of iterations used =            8  plain     mixing
     Exchange-correlation      = PBE ( 1  4  3  4 0)

     celldm(1)=   7.000000  celldm(2)=   0.000000  celldm(3)=   0.000000
     celldm(4)=   0.000000  celldm(5)=   0.000000  celldm(6)=   0.000000

     crystal axes: (cart. coord. in units of alat)
               a(1) = (   0.500000   0.500000   0.500000 )  
               a(2) = (  -0.500000   0.500000   0.500000 )  
               a(3) = (  -0.500000  -0.500000   0.500000 )  

     reciprocal axes: (cart. coord. in units 2 pi/alat)
               b(1) = (  1.000000  0.000000  1.000000 )  
               b(2) = ( -1.000000  1.000000  0.000000 )  
               b(3) = (  0.000000 -1.000000  1.000000 )  


     PseudoPot. # 1 for Ag read from file:
     ../pseudo/Ag.pbe-n-rrkjus_psl.1.0.0.UPF
     MD5 check sum: d841cbfac2b0861aec33b46768a516bf
     Pseudo is Ultrasoft + core correction, Zval = 11.0
     Generated using "atomic" code by A. Dal Corso  v.6.2.2
     Using radial grid of 1237 points,  6 beta functions with: 
                l(1) =   0
                l(2) =   0
                l(3) =   1
                l(4) =   1
                l(5) =   2
                l(6) =   2
     Q(r) pseudized with 0 coefficients 


     atomic species   valence    mass     pseudopotential
        Ag            11.00   107.86000     Ag( 1.00)

     48 Sym. Ops., with inversion, found



   Cartesian axes

     site n.     atom                  positions (alat units)
         1           Ag  tau(   1) = (   0.0000000   0.0000000   0.0000000  )

     number of k points=    14  Marzari-Vanderbilt smearing, width (Ry)=  0.0200
                       cart. coord. in units 2pi/alat
        k(    1) = (   0.0000000   0.0000000   0.1666667), wk =   0.0555556
        k(    2) = (   0.0000000  -0.1666667   0.3333333), wk =   0.2222222
        k(    3) = (   0.0000000  -0.3333333   0.5000000), wk =   0.2222222
        k(    4) = (  -0.1666667   0.1666667   0.1666667), wk =   0.0740741
        k(    5) = (  -0.1666667  -0.1666667   0.5000000), wk =   0.2222222
        k(    6) = (  -0.1666667   0.6666667  -0.3333333), wk =   0.2222222
        k(    7) = (  -0.3333333   0.3333333   0.1666667), wk =   0.2222222
        k(    8) = (   0.5000000  -0.5000000   0.1666667), wk =   0.1111111
        k(    9) = (   0.5000000  -0.6666667   0.3333333), wk =   0.2222222
        k(   10) = (   0.0000000   0.0000000   0.5000000), wk =   0.0555556
        k(   11) = (   0.0000000  -0.1666667   0.6666667), wk =   0.2222222
        k(   12) = (  -0.1666667   0.8333333  -0.1666667), wk =   0.0740741
        k(   13) = (   0.5000000  -0.5000000   0.5000000), wk =   0.0185185
        k(   14) = (   0.0000000   0.0000000   0.8333333), wk =   0.0555556

     Dense  grid:     3805 G-vectors     FFT dimensions: (  24,  24,  24)

     Largest allocated arrays     est. size (Mb)     dimensions
        Kohn-Sham Wavefunctions         0.07 Mb     (     488,   10)
        NL pseudopotentials             0.13 Mb     (     488,   18)
        Each V/rho on FFT grid          0.21 Mb     (   13824)
        Each G-vector array             0.03 Mb     (    3805)
        G-vector shells                 0.00 Mb     (      70)
     Largest temporary arrays     est. size (Mb)     dimensions
        Auxiliary wavefunctions         0.30 Mb     (     488,   40)
        Each subspace H/S matrix        0.02 Mb     (      40,   40)
        Each <psi_i|beta_j> matrix      0.00 Mb     (      18,   10)
        Arrays for rho mixing           1.69 Mb     (   13824,    8)

     Initial potential from superposition of free atoms

     starting charge   10.99960, renormalised to   11.00000
     Starting wfc are    9 randomized atomic wfcs +    1 random wfc

     total cpu time spent up to now is        0.5 secs

     per-process dynamical memory:    10.2 Mb

     Self-consistent Calculation

     iteration #  1     ecut=    30.00 Ry     beta=0.70
     Davidson diagonalization with overlap
     ethr =  1.00E-02,  avg # of iterations =  3.5

     Threshold (ethr) on eigenvalues was too large:
     Diagonalizing with lowered threshold

     Davidson diagonalization with overlap
     ethr =  1.71E-05,  avg # of iterations =  3.9

     total cpu time spent up to now is        0.9 secs

     total energy              =     -84.14556552 Ry
     Harris-Foulkes estimate   =     -84.14447081 Ry
     estimated scf accuracy    <       0.00183420 Ry

     iteration #  2     ecut=    30.00 Ry     beta=0.70
     Davidson diagonalization with overlap
     ethr =  1.67E-05,  avg # of iterations =  1.0

     total cpu time spent up to now is        1.0 secs

     total energy              =     -84.14576060 Ry
     Harris-Foulkes estimate   =     -84.14561919 Ry
     estimated scf accuracy    <       0.00014172 Ry

     iteration #  3     ecut=    30.00 Ry     beta=0.70
     Davidson diagonalization with overlap
     ethr =  1.29E-06,  avg # of iterations =  2.1

     total cpu time spent up to now is        1.2 secs

     total energy              =     -84.14577604 Ry
     Harris-Foulkes estimate   =     -84.14577651 Ry
     estimated scf accuracy    <       0.00000375 Ry

     iteration #  4     ecut=    30.00 Ry     beta=0.70
     Davidson diagonalization with overlap
     ethr =  3.41E-08,  avg # of iterations =  2.1

     total cpu time spent up to now is        1.3 secs

     total energy              =     -84.14577699 Ry
     Harris-Foulkes estimate   =     -84.14577729 Ry
     estimated scf accuracy    <       0.00000117 Ry

     iteration #  5     ecut=    30.00 Ry     beta=0.70
     Davidson diagonalization with overlap
     ethr =  1.07E-08,  avg # of iterations =  2.0

     total cpu time spent up to now is        1.5 secs

     End of self-consistent calculation

          k = 0.0000 0.0000 0.1667 (   470 PWs)   bands (ev):

     2.0001   3.1565   3.1565   3.2155   3.7801   3.8717  22.1279  22.1917
    22.2922  22.2922

          k = 0.0000-0.1667 0.3333 (   472 PWs)   bands (ev):

     2.7255   3.0239   3.5131   3.6390   3.6621   4.1161  16.2915  19.6348
    19.8970  23.1012

          k = 0.0000-0.3333 0.5000 (   476 PWs)   bands (ev):

     2.5570   2.8662   3.6472   3.7513   4.1953   6.6349  11.0291  17.8022
    18.5709  23.4757

          k =-0.1667 0.1667 0.1667 (   477 PWs)   bands (ev):

     2.5364   3.0262   3.0262   3.7258   3.7843   3.7843  19.0299  19.4835
    19.4835  24.5312

          k =-0.1667-0.1667 0.5000 (   475 PWs)   bands (ev):

     2.8372   3.0356   3.3774   3.6351   3.9508   6.0892  13.8558  14.7065
    20.2715  22.0075

          k =-0.1667 0.6667-0.3333 (   473 PWs)   bands (ev):

     2.7731   3.0006   3.3397   3.7704   4.0874   9.3657   9.7578  13.5670
    19.8359  22.7794

          k =-0.3333 0.3333 0.1667 (   479 PWs)   bands (ev):

     2.7249   2.8544   3.5889   3.7554   3.8110   5.4556  13.6024  17.0907
    17.6442  24.7906

          k = 0.5000-0.5000 0.1667 (   488 PWs)   bands (ev):

     2.5734   2.7541   3.7616   3.8136   3.9766   8.3940   9.3754  16.2253
    16.9828  24.5519

          k = 0.5000-0.6667 0.3333 (   479 PWs)   bands (ev):

     2.7321   3.0136   3.4268   3.8024   3.8595   8.2879  11.8018  12.7209
    16.2039  26.5653

          k = 0.0000 0.0000 0.5000 (   458 PWs)   bands (ev):

     3.1311   3.2146   3.4700   3.4700   3.6533   5.3572  16.9599  16.9599
    17.5238  18.9726

          k = 0.0000-0.1667 0.6667 (   472 PWs)   bands (ev):

     2.8179   3.0362   3.4173   3.6468   4.1264   8.0736  12.1689  15.1920
    17.3420  20.3814

          k =-0.1667 0.8333-0.1667 (   466 PWs)   bands (ev):

     2.7931   2.7931   3.4783   4.0675   4.0675  11.0486  11.5827  11.5827
    19.1584  20.1105

          k = 0.5000-0.5000 0.5000 (   484 PWs)   bands (ev):

     3.0549   3.0549   3.0549   3.8193   3.8193  10.6186  12.0065  12.0065
    12.0065  31.7657

          k = 0.0000 0.0000 0.8333 (   482 PWs)   bands (ev):

     2.5573   2.6010   4.0005   4.0005   4.0667  10.5158  13.3529  13.3529
    15.7762  17.6201

     the Fermi energy is     6.7271 ev

!    total energy              =     -84.14577723 Ry
     Harris-Foulkes estimate   =     -84.14577726 Ry
     estimated scf accuracy    <       0.00000006 Ry

     The total energy is the sum of the following terms:

     one-electron contribution =     -18.39128854 Ry
     hartree contribution      =      19.35918524 Ry
     xc contribution           =     -22.20655315 Ry
     ewald contribution        =     -62.90674967 Ry
     smearing contrib. (-TS)   =      -0.00037111 Ry

     convergence has been achieved in   5 iterations

     Writing output data file Ag_exc2.save

     init_run     :      0.35s CPU      0.35s WALL (       1 calls)
     electrons    :      0.95s CPU      0.96s WALL (       1 calls)

     Called by init_run:
     wfcinit      :      0.05s CPU      0.05s WALL (       1 calls)
     potinit      :      0.01s CPU      0.01s WALL (       1 calls)

     Called by electrons:
     c_bands      :      0.69s CPU      0.69s WALL (       6 calls)
     sum_band     :      0.18s CPU      0.18s WALL (       6 calls)
     v_of_rho     :      0.04s CPU      0.04s WALL (       6 calls)
     newd         :      0.06s CPU      0.06s WALL (       6 calls)
     mix_rho      :      0.00s CPU      0.00s WALL (       6 calls)

     Called by c_bands:
     init_us_2    :      0.03s CPU      0.03s WALL (     182 calls)
     cegterg      :      0.65s CPU      0.66s WALL (      84 calls)

     Called by *egterg:
     h_psi        :      0.55s CPU      0.55s WALL (     303 calls)
     s_psi        :      0.02s CPU      0.02s WALL (     303 calls)
     g_psi        :      0.00s CPU      0.00s WALL (     205 calls)
     cdiaghg      :      0.03s CPU      0.03s WALL (     275 calls)

     Called by h_psi:
     add_vuspsi   :      0.02s CPU      0.02s WALL (     303 calls)

     General routines
     calbec       :      0.03s CPU      0.04s WALL (     387 calls)
     fft          :      0.02s CPU      0.02s WALL (      80 calls)
     fftw         :      0.52s CPU      0.53s WALL (    5170 calls)
     davcio       :      0.00s CPU      0.00s WALL (      14 calls)

     Parallel routines
     fft_scatter  :      0.03s CPU      0.03s WALL (    5250 calls)

     PWSCF        :     1.53s CPU         1.54s WALL


   This run was terminated on:   6:45:24  30Apr2020            

=------------------------------------------------------------------------------=
   JOB DONE.
=------------------------------------------------------------------------------=
