
     Program PWSCF v.5.1 starts on 30Apr2020 at  6:45:25 

     This program is part of the open-source Quantum ESPRESSO suite
     for quantum simulation of materials; please cite
         "P. Giannozzi et al., J. Phys.:Condens. Matter 21 395502 (2009);
          URL http://www.quantum-espresso.org", 
     in publications or presentations arising from this work. More details at
     http://www.quantum-espresso.org/quote

     Parallel version (MPI), running on     1 processors
     Waiting for input...
     Reading input from standard input

     Current dimensions of program PWSCF are:
     Max number of different atomic species (ntypx) = 10
     Max number of k-points (npk) =  40000
     Max angular momentum in pseudopotentials (lmaxx) =  3

     Subspace diagonalization in iterative solution of the eigenvalue problem:
     a serial algorithm will be used


     G-vector sticks info
     --------------------
     sticks:   dense  smooth     PW     G-vecs:    dense   smooth      PW
     Sum         383     383    129                 4729     4729     887



     bravais-lattice index     =            3
     lattice parameter (alat)  =       7.5000  a.u.
     unit-cell volume          =     210.9375 (a.u.)^3
     number of atoms/cell      =            1
     number of atomic types    =            1
     number of electrons       =        11.00
     number of Kohn-Sham states=           10
     kinetic-energy cutoff     =      30.0000  Ry
     charge density cutoff     =     120.0000  Ry
     convergence threshold     =      1.0E-06
     mixing beta               =       0.7000
     number of iterations used =            8  plain     mixing
     Exchange-correlation      = PBE ( 1  4  3  4 0)

     celldm(1)=   7.500000  celldm(2)=   0.000000  celldm(3)=   0.000000
     celldm(4)=   0.000000  celldm(5)=   0.000000  celldm(6)=   0.000000

     crystal axes: (cart. coord. in units of alat)
               a(1) = (   0.500000   0.500000   0.500000 )  
               a(2) = (  -0.500000   0.500000   0.500000 )  
               a(3) = (  -0.500000  -0.500000   0.500000 )  

     reciprocal axes: (cart. coord. in units 2 pi/alat)
               b(1) = (  1.000000  0.000000  1.000000 )  
               b(2) = ( -1.000000  1.000000  0.000000 )  
               b(3) = (  0.000000 -1.000000  1.000000 )  


     PseudoPot. # 1 for Ag read from file:
     ../pseudo/Ag.pbe-n-rrkjus_psl.1.0.0.UPF
     MD5 check sum: d841cbfac2b0861aec33b46768a516bf
     Pseudo is Ultrasoft + core correction, Zval = 11.0
     Generated using "atomic" code by A. Dal Corso  v.6.2.2
     Using radial grid of 1237 points,  6 beta functions with: 
                l(1) =   0
                l(2) =   0
                l(3) =   1
                l(4) =   1
                l(5) =   2
                l(6) =   2
     Q(r) pseudized with 0 coefficients 


     atomic species   valence    mass     pseudopotential
        Ag            11.00   107.86000     Ag( 1.00)

     48 Sym. Ops., with inversion, found



   Cartesian axes

     site n.     atom                  positions (alat units)
         1           Ag  tau(   1) = (   0.0000000   0.0000000   0.0000000  )

     number of k points=    14  Marzari-Vanderbilt smearing, width (Ry)=  0.0200
                       cart. coord. in units 2pi/alat
        k(    1) = (   0.0000000   0.0000000   0.1666667), wk =   0.0555556
        k(    2) = (   0.0000000  -0.1666667   0.3333333), wk =   0.2222222
        k(    3) = (   0.0000000  -0.3333333   0.5000000), wk =   0.2222222
        k(    4) = (  -0.1666667   0.1666667   0.1666667), wk =   0.0740741
        k(    5) = (  -0.1666667  -0.1666667   0.5000000), wk =   0.2222222
        k(    6) = (  -0.1666667   0.6666667  -0.3333333), wk =   0.2222222
        k(    7) = (  -0.3333333   0.3333333   0.1666667), wk =   0.2222222
        k(    8) = (   0.5000000  -0.5000000   0.1666667), wk =   0.1111111
        k(    9) = (   0.5000000  -0.6666667   0.3333333), wk =   0.2222222
        k(   10) = (   0.0000000   0.0000000   0.5000000), wk =   0.0555556
        k(   11) = (   0.0000000  -0.1666667   0.6666667), wk =   0.2222222
        k(   12) = (  -0.1666667   0.8333333  -0.1666667), wk =   0.0740741
        k(   13) = (   0.5000000  -0.5000000   0.5000000), wk =   0.0185185
        k(   14) = (   0.0000000   0.0000000   0.8333333), wk =   0.0555556

     Dense  grid:     4729 G-vectors     FFT dimensions: (  24,  24,  24)

     Largest allocated arrays     est. size (Mb)     dimensions
        Kohn-Sham Wavefunctions         0.09 Mb     (     591,   10)
        NL pseudopotentials             0.16 Mb     (     591,   18)
        Each V/rho on FFT grid          0.21 Mb     (   13824)
        Each G-vector array             0.04 Mb     (    4729)
        G-vector shells                 0.00 Mb     (      80)
     Largest temporary arrays     est. size (Mb)     dimensions
        Auxiliary wavefunctions         0.36 Mb     (     591,   40)
        Each subspace H/S matrix        0.02 Mb     (      40,   40)
        Each <psi_i|beta_j> matrix      0.00 Mb     (      18,   10)
        Arrays for rho mixing           1.69 Mb     (   13824,    8)

     Initial potential from superposition of free atoms

     starting charge   10.99960, renormalised to   11.00000
     Starting wfc are    9 randomized atomic wfcs +    1 random wfc

     total cpu time spent up to now is        0.6 secs

     per-process dynamical memory:    10.9 Mb

     Self-consistent Calculation

     iteration #  1     ecut=    30.00 Ry     beta=0.70
     Davidson diagonalization with overlap
     ethr =  1.00E-02,  avg # of iterations =  3.6

     Threshold (ethr) on eigenvalues was too large:
     Diagonalizing with lowered threshold

     Davidson diagonalization with overlap
     ethr =  5.16E-05,  avg # of iterations =  2.4

     total cpu time spent up to now is        0.9 secs

     total energy              =     -84.11480918 Ry
     Harris-Foulkes estimate   =     -84.11575892 Ry
     estimated scf accuracy    <       0.00528987 Ry

     iteration #  2     ecut=    30.00 Ry     beta=0.70
     Davidson diagonalization with overlap
     ethr =  4.81E-05,  avg # of iterations =  2.4

     total cpu time spent up to now is        1.1 secs

     total energy              =     -84.11547409 Ry
     Harris-Foulkes estimate   =     -84.11690090 Ry
     estimated scf accuracy    <       0.00271505 Ry

     iteration #  3     ecut=    30.00 Ry     beta=0.70
     Davidson diagonalization with overlap
     ethr =  2.47E-05,  avg # of iterations =  2.5

     total cpu time spent up to now is        1.3 secs

     total energy              =     -84.11626249 Ry
     Harris-Foulkes estimate   =     -84.11627656 Ry
     estimated scf accuracy    <       0.00021833 Ry

     iteration #  4     ecut=    30.00 Ry     beta=0.70
     Davidson diagonalization with overlap
     ethr =  1.98E-06,  avg # of iterations =  1.9

     total cpu time spent up to now is        1.4 secs

     End of self-consistent calculation

          k = 0.0000 0.0000 0.1667 (   591 PWs)   bands (ev):

     0.7491   1.2816   1.2816   1.2837   1.6739   1.7343  17.8203  18.0800
    18.0800  18.6927

          k = 0.0000-0.1667 0.3333 (   590 PWs)   bands (ev):

     1.0782   1.1816   1.5749   1.6267   1.6491   2.2267  12.8510  15.7597
    16.2633  19.0150

          k = 0.0000-0.3333 0.5000 (   586 PWs)   bands (ev):

     0.9346   1.0741   1.6261   1.7071   2.0010   4.6260   8.2548  14.2600
    15.1747  19.1963

          k =-0.1667 0.1667 0.1667 (   588 PWs)   bands (ev):

     1.1248   1.2010   1.2010   1.7047   1.7047   1.7779  15.0004  15.9112
    15.9112  21.1650

          k =-0.1667-0.1667 0.5000 (   580 PWs)   bands (ev):

     1.0952   1.2251   1.5115   1.6084   1.8640   4.0602  10.6757  11.6455
    16.4299  18.2915

          k =-0.1667 0.6667-0.3333 (   584 PWs)   bands (ev):

     1.0559   1.2006   1.4612   1.6903   1.9382   6.9337   7.1478  10.6100
    16.1181  18.7889

          k =-0.3333 0.3333 0.1667 (   587 PWs)   bands (ev):

     1.0454   1.0637   1.6551   1.7021   1.7494   3.4919  10.5030  13.6000
    14.3181  20.8661

          k = 0.5000-0.5000 0.1667 (   590 PWs)   bands (ev):

     0.9331   1.0058   1.7176   1.7801   1.8764   6.3742   6.5559  12.8634
    13.7603  20.5485

          k = 0.5000-0.6667 0.3333 (   581 PWs)   bands (ev):

     1.0129   1.2414   1.5360   1.7329   1.8071   5.8980   8.9055   9.9493
    12.9594  22.4950

          k = 0.0000 0.0000 0.5000 (   583 PWs)   bands (ev):

     1.2827   1.3857   1.4792   1.4792   1.6265   3.4118  13.5141  13.5141
    13.7260  15.6040

          k = 0.0000-0.1667 0.6667 (   584 PWs)   bands (ev):

     1.0759   1.2425   1.4647   1.6499   1.9812   5.7780   9.3185  12.0708
    13.7317  16.6422

          k =-0.1667 0.8333-0.1667 (   577 PWs)   bands (ev):

     1.0735   1.0735   1.5158   1.9507   1.9507   8.0806   9.0122   9.0122
    14.9964  16.5514

          k = 0.5000-0.5000 0.5000 (   544 PWs)   bands (ev):

     1.3158   1.3158   1.3158   1.8584   1.8584   7.6006   9.3508   9.3508
     9.3508  27.0304

          k = 0.0000 0.0000 0.8333 (   590 PWs)   bands (ev):

     0.8922   0.9608   1.9045   1.9045   1.9346   7.9167  10.5818  10.5818
    11.9152  14.2504

     the Fermi energy is     4.7195 ev

!    total energy              =     -84.11629595 Ry
     Harris-Foulkes estimate   =     -84.11629517 Ry
     estimated scf accuracy    <       0.00000096 Ry

     The total energy is the sum of the following terms:

     one-electron contribution =     -25.17985416 Ry
     hartree contribution      =      21.95953156 Ry
     xc contribution           =     -22.18260269 Ry
     ewald contribution        =     -58.71296636 Ry
     smearing contrib. (-TS)   =      -0.00040430 Ry

     convergence has been achieved in   4 iterations

     Writing output data file Ag_exc2.save

     init_run     :      0.35s CPU      0.35s WALL (       1 calls)
     electrons    :      0.86s CPU      0.87s WALL (       1 calls)

     Called by init_run:
     wfcinit      :      0.05s CPU      0.05s WALL (       1 calls)
     potinit      :      0.01s CPU      0.01s WALL (       1 calls)

     Called by electrons:
     c_bands      :      0.61s CPU      0.63s WALL (       5 calls)
     sum_band     :      0.17s CPU      0.17s WALL (       5 calls)
     v_of_rho     :      0.03s CPU      0.03s WALL (       5 calls)
     newd         :      0.06s CPU      0.06s WALL (       5 calls)
     mix_rho      :      0.00s CPU      0.00s WALL (       5 calls)

     Called by c_bands:
     init_us_2    :      0.03s CPU      0.03s WALL (     154 calls)
     cegterg      :      0.58s CPU      0.59s WALL (      70 calls)

     Called by *egterg:
     h_psi        :      0.47s CPU      0.48s WALL (     263 calls)
     s_psi        :      0.03s CPU      0.03s WALL (     263 calls)
     g_psi        :      0.00s CPU      0.00s WALL (     179 calls)
     cdiaghg      :      0.03s CPU      0.03s WALL (     235 calls)

     Called by h_psi:
     add_vuspsi   :      0.02s CPU      0.03s WALL (     263 calls)

     General routines
     calbec       :      0.04s CPU      0.04s WALL (     333 calls)
     fft          :      0.01s CPU      0.01s WALL (      67 calls)
     fftw         :      0.45s CPU      0.46s WALL (    4404 calls)
     davcio       :      0.00s CPU      0.00s WALL (      14 calls)

     Parallel routines
     fft_scatter  :      0.03s CPU      0.03s WALL (    4471 calls)

     PWSCF        :     1.44s CPU         1.46s WALL


   This run was terminated on:   6:45:27  30Apr2020            

=------------------------------------------------------------------------------=
   JOB DONE.
=------------------------------------------------------------------------------=
