
     Program PWSCF v.5.1 starts on 30Apr2020 at  6:45:30 

     This program is part of the open-source Quantum ESPRESSO suite
     for quantum simulation of materials; please cite
         "P. Giannozzi et al., J. Phys.:Condens. Matter 21 395502 (2009);
          URL http://www.quantum-espresso.org", 
     in publications or presentations arising from this work. More details at
     http://www.quantum-espresso.org/quote

     Parallel version (MPI), running on     1 processors
     Waiting for input...
     Reading input from standard input

     Current dimensions of program PWSCF are:
     Max number of different atomic species (ntypx) = 10
     Max number of k-points (npk) =  40000
     Max angular momentum in pseudopotentials (lmaxx) =  3

     Subspace diagonalization in iterative solution of the eigenvalue problem:
     a serial algorithm will be used


     G-vector sticks info
     --------------------
     sticks:   dense  smooth     PW     G-vecs:    dense   smooth      PW
     Sum         483     483    155                 6819     6819    1205



     bravais-lattice index     =            3
     lattice parameter (alat)  =       8.5000  a.u.
     unit-cell volume          =     307.0625 (a.u.)^3
     number of atoms/cell      =            1
     number of atomic types    =            1
     number of electrons       =        11.00
     number of Kohn-Sham states=           10
     kinetic-energy cutoff     =      30.0000  Ry
     charge density cutoff     =     120.0000  Ry
     convergence threshold     =      1.0E-06
     mixing beta               =       0.7000
     number of iterations used =            8  plain     mixing
     Exchange-correlation      = PBE ( 1  4  3  4 0)

     celldm(1)=   8.500000  celldm(2)=   0.000000  celldm(3)=   0.000000
     celldm(4)=   0.000000  celldm(5)=   0.000000  celldm(6)=   0.000000

     crystal axes: (cart. coord. in units of alat)
               a(1) = (   0.500000   0.500000   0.500000 )  
               a(2) = (  -0.500000   0.500000   0.500000 )  
               a(3) = (  -0.500000  -0.500000   0.500000 )  

     reciprocal axes: (cart. coord. in units 2 pi/alat)
               b(1) = (  1.000000  0.000000  1.000000 )  
               b(2) = ( -1.000000  1.000000  0.000000 )  
               b(3) = (  0.000000 -1.000000  1.000000 )  


     PseudoPot. # 1 for Ag read from file:
     ../pseudo/Ag.pbe-n-rrkjus_psl.1.0.0.UPF
     MD5 check sum: d841cbfac2b0861aec33b46768a516bf
     Pseudo is Ultrasoft + core correction, Zval = 11.0
     Generated using "atomic" code by A. Dal Corso  v.6.2.2
     Using radial grid of 1237 points,  6 beta functions with: 
                l(1) =   0
                l(2) =   0
                l(3) =   1
                l(4) =   1
                l(5) =   2
                l(6) =   2
     Q(r) pseudized with 0 coefficients 


     atomic species   valence    mass     pseudopotential
        Ag            11.00   107.86000     Ag( 1.00)

     48 Sym. Ops., with inversion, found



   Cartesian axes

     site n.     atom                  positions (alat units)
         1           Ag  tau(   1) = (   0.0000000   0.0000000   0.0000000  )

     number of k points=    14  Marzari-Vanderbilt smearing, width (Ry)=  0.0200
                       cart. coord. in units 2pi/alat
        k(    1) = (   0.0000000   0.0000000   0.1666667), wk =   0.0555556
        k(    2) = (   0.0000000  -0.1666667   0.3333333), wk =   0.2222222
        k(    3) = (   0.0000000  -0.3333333   0.5000000), wk =   0.2222222
        k(    4) = (  -0.1666667   0.1666667   0.1666667), wk =   0.0740741
        k(    5) = (  -0.1666667  -0.1666667   0.5000000), wk =   0.2222222
        k(    6) = (  -0.1666667   0.6666667  -0.3333333), wk =   0.2222222
        k(    7) = (  -0.3333333   0.3333333   0.1666667), wk =   0.2222222
        k(    8) = (   0.5000000  -0.5000000   0.1666667), wk =   0.1111111
        k(    9) = (   0.5000000  -0.6666667   0.3333333), wk =   0.2222222
        k(   10) = (   0.0000000   0.0000000   0.5000000), wk =   0.0555556
        k(   11) = (   0.0000000  -0.1666667   0.6666667), wk =   0.2222222
        k(   12) = (  -0.1666667   0.8333333  -0.1666667), wk =   0.0740741
        k(   13) = (   0.5000000  -0.5000000   0.5000000), wk =   0.0185185
        k(   14) = (   0.0000000   0.0000000   0.8333333), wk =   0.0555556

     Dense  grid:     6819 G-vectors     FFT dimensions: (  25,  25,  25)

     Largest allocated arrays     est. size (Mb)     dimensions
        Kohn-Sham Wavefunctions         0.13 Mb     (     875,   10)
        NL pseudopotentials             0.24 Mb     (     875,   18)
        Each V/rho on FFT grid          0.24 Mb     (   15625)
        Each G-vector array             0.05 Mb     (    6819)
        G-vector shells                 0.00 Mb     (     103)
     Largest temporary arrays     est. size (Mb)     dimensions
        Auxiliary wavefunctions         0.53 Mb     (     875,   40)
        Each subspace H/S matrix        0.02 Mb     (      40,   40)
        Each <psi_i|beta_j> matrix      0.00 Mb     (      18,   10)
        Arrays for rho mixing           1.91 Mb     (   15625,    8)

     Initial potential from superposition of free atoms

     starting charge   10.99960, renormalised to   11.00000
     Starting wfc are    9 randomized atomic wfcs +    1 random wfc

     total cpu time spent up to now is        0.6 secs

     per-process dynamical memory:    12.5 Mb

     Self-consistent Calculation

     iteration #  1     ecut=    30.00 Ry     beta=0.70
     Davidson diagonalization with overlap
     ethr =  1.00E-02,  avg # of iterations =  4.0

     Threshold (ethr) on eigenvalues was too large:
     Diagonalizing with lowered threshold

     Davidson diagonalization with overlap
     ethr =  1.63E-04,  avg # of iterations =  1.2

     total cpu time spent up to now is        0.9 secs

     total energy              =     -84.05860631 Ry
     Harris-Foulkes estimate   =     -84.06851138 Ry
     estimated scf accuracy    <       0.01722869 Ry

     iteration #  2     ecut=    30.00 Ry     beta=0.70
     Davidson diagonalization with overlap
     ethr =  1.57E-04,  avg # of iterations =  2.6

     total cpu time spent up to now is        1.1 secs

     total energy              =     -84.06204733 Ry
     Harris-Foulkes estimate   =     -84.06878417 Ry
     estimated scf accuracy    <       0.01261101 Ry

     iteration #  3     ecut=    30.00 Ry     beta=0.70
     Davidson diagonalization with overlap
     ethr =  1.15E-04,  avg # of iterations =  2.0

     total cpu time spent up to now is        1.3 secs

     total energy              =     -84.06514004 Ry
     Harris-Foulkes estimate   =     -84.06513045 Ry
     estimated scf accuracy    <       0.00023910 Ry

     iteration #  4     ecut=    30.00 Ry     beta=0.70
     Davidson diagonalization with overlap
     ethr =  2.17E-06,  avg # of iterations =  3.1

     total cpu time spent up to now is        1.5 secs

     total energy              =     -84.06518341 Ry
     Harris-Foulkes estimate   =     -84.06518122 Ry
     estimated scf accuracy    <       0.00000173 Ry

     iteration #  5     ecut=    30.00 Ry     beta=0.70
     Davidson diagonalization with overlap
     ethr =  1.57E-08,  avg # of iterations =  2.5

     total cpu time spent up to now is        1.7 secs

     End of self-consistent calculation

          k = 0.0000 0.0000 0.1667 (   875 PWs)   bands (ev):

    -1.3355  -1.3355  -1.3189  -1.1704  -1.1222  -0.8284  11.6768  12.0554
    12.0554  13.7726

          k = 0.0000-0.1667 0.3333 (   862 PWs)   bands (ev):

    -1.3734  -1.3531  -1.1729  -1.1721  -1.1273   0.0891   8.1482  10.4370
    11.0353  13.3430

          k = 0.0000-0.3333 0.5000 (   843 PWs)   bands (ev):

    -1.4446  -1.4062  -1.1394  -1.1156  -0.9574   1.8908   4.7207   9.4038
    10.3068  13.2036

          k =-0.1667 0.1667 0.1667 (   866 PWs)   bands (ev):

    -1.3697  -1.3697  -1.2465  -1.1253  -1.1253  -0.3626   9.5225  10.8485
    10.8485  14.8535

          k =-0.1667-0.1667 0.5000 (   844 PWs)   bands (ev):

    -1.3790  -1.3072  -1.1851  -1.1644  -1.0350   1.4415   6.4230   7.5560
    10.9929  13.0592

          k =-0.1667 0.6667-0.3333 (   846 PWs)   bands (ev):

    -1.4085  -1.3390  -1.2057  -1.1193  -0.9853   3.1644   4.2863   6.6891
    10.8447  13.1699

          k =-0.3333 0.3333 0.1667 (   847 PWs)   bands (ev):

    -1.4071  -1.3841  -1.1433  -1.0936  -1.0795   1.0148   6.3611   8.8830
     9.6989  14.5913

          k = 0.5000-0.5000 0.1667 (   848 PWs)   bands (ev):

    -1.4405  -1.4264  -1.1208  -1.0946  -1.0096   2.8464   3.7706   8.3106
     9.2912  14.2988

          k = 0.5000-0.6667 0.3333 (   853 PWs)   bands (ev):

    -1.4335  -1.3275  -1.1612  -1.1109  -1.0862   2.6758   5.1747   6.2921
     8.5544  16.2717

          k = 0.0000 0.0000 0.5000 (   843 PWs)   bands (ev):

    -1.2824  -1.2068  -1.1989  -1.1989  -1.1786   0.9758   8.4766   8.8512
     8.8512  11.0456

          k = 0.0000-0.1667 0.6667 (   849 PWs)   bands (ev):

    -1.3898  -1.3092  -1.2281  -1.1333  -0.9900   2.6949   5.5677   7.8437
     8.7815  11.5474

          k =-0.1667 0.8333-0.1667 (   853 PWs)   bands (ev):

    -1.4075  -1.4075  -1.2075  -1.0100  -1.0100   4.0076   5.6280   5.6280
     9.4706  11.6280

          k = 0.5000-0.5000 0.5000 (   868 PWs)   bands (ev):

    -1.3241  -1.3241  -1.3241  -1.1062  -1.1062   3.5335   5.8415   5.8415
     5.8415  19.7283

          k = 0.0000 0.0000 0.8333 (   848 PWs)   bands (ev):

    -1.4841  -1.4505  -1.0186  -1.0186  -1.0161   4.2384   6.8230   6.8230
     6.9355   9.7629

     the Fermi energy is     1.9726 ev

!    total energy              =     -84.06518401 Ry
     Harris-Foulkes estimate   =     -84.06518407 Ry
     estimated scf accuracy    <       0.00000010 Ry

     The total energy is the sum of the following terms:

     one-electron contribution =     -36.74208344 Ry
     hartree contribution      =      26.64699236 Ry
     xc contribution           =     -22.16439397 Ry
     ewald contribution        =     -51.80555856 Ry
     smearing contrib. (-TS)   =      -0.00014041 Ry

     convergence has been achieved in   5 iterations

     Writing output data file Ag_exc2.save

     init_run     :      0.38s CPU      0.39s WALL (       1 calls)
     electrons    :      1.08s CPU      1.09s WALL (       1 calls)

     Called by init_run:
     wfcinit      :      0.05s CPU      0.05s WALL (       1 calls)
     potinit      :      0.01s CPU      0.01s WALL (       1 calls)

     Called by electrons:
     c_bands      :      0.74s CPU      0.75s WALL (       6 calls)
     sum_band     :      0.21s CPU      0.22s WALL (       6 calls)
     v_of_rho     :      0.04s CPU      0.04s WALL (       6 calls)
     newd         :      0.10s CPU      0.10s WALL (       6 calls)
     mix_rho      :      0.00s CPU      0.00s WALL (       6 calls)

     Called by c_bands:
     init_us_2    :      0.05s CPU      0.05s WALL (     182 calls)
     cegterg      :      0.68s CPU      0.68s WALL (      84 calls)

     Called by *egterg:
     h_psi        :      0.47s CPU      0.48s WALL (     314 calls)
     s_psi        :      0.04s CPU      0.04s WALL (     314 calls)
     g_psi        :      0.00s CPU      0.00s WALL (     216 calls)
     cdiaghg      :      0.03s CPU      0.04s WALL (     286 calls)

     Called by h_psi:
     add_vuspsi   :      0.04s CPU      0.04s WALL (     314 calls)

     General routines
     calbec       :      0.06s CPU      0.06s WALL (     398 calls)
     fft          :      0.01s CPU      0.01s WALL (      80 calls)
     fftw         :      0.38s CPU      0.38s WALL (    5294 calls)
     davcio       :      0.00s CPU      0.00s WALL (      14 calls)

     Parallel routines
     fft_scatter  :      0.04s CPU      0.04s WALL (    5374 calls)

     PWSCF        :     1.70s CPU         1.72s WALL


   This run was terminated on:   6:45:32  30Apr2020            

=------------------------------------------------------------------------------=
   JOB DONE.
=------------------------------------------------------------------------------=
