
     Program PWSCF v.5.1 starts on 30Apr2020 at  6:52:19 

     This program is part of the open-source Quantum ESPRESSO suite
     for quantum simulation of materials; please cite
         "P. Giannozzi et al., J. Phys.:Condens. Matter 21 395502 (2009);
          URL http://www.quantum-espresso.org", 
     in publications or presentations arising from this work. More details at
     http://www.quantum-espresso.org/quote

     Parallel version (MPI), running on     1 processors
     Waiting for input...
     Reading input from standard input

     Current dimensions of program PWSCF are:
     Max number of different atomic species (ntypx) = 10
     Max number of k-points (npk) =  40000
     Max angular momentum in pseudopotentials (lmaxx) =  3

     Subspace diagonalization in iterative solution of the eigenvalue problem:
     a serial algorithm will be used


     G-vector sticks info
     --------------------
     sticks:   dense  smooth     PW     G-vecs:    dense   smooth      PW
     Sum         241     241     83                 2347     2347     459



     bravais-lattice index     =            3
     lattice parameter (alat)  =       6.0000  a.u.
     unit-cell volume          =     108.0000 (a.u.)^3
     number of atoms/cell      =            1
     number of atomic types    =            1
     number of electrons       =        11.00
     number of Kohn-Sham states=           10
     kinetic-energy cutoff     =      30.0000  Ry
     charge density cutoff     =     120.0000  Ry
     convergence threshold     =      1.0E-06
     mixing beta               =       0.7000
     number of iterations used =            8  plain     mixing
     Exchange-correlation      = PBE ( 1  4  3  4 0)

     celldm(1)=   6.000000  celldm(2)=   0.000000  celldm(3)=   0.000000
     celldm(4)=   0.000000  celldm(5)=   0.000000  celldm(6)=   0.000000

     crystal axes: (cart. coord. in units of alat)
               a(1) = (   0.500000   0.500000   0.500000 )  
               a(2) = (  -0.500000   0.500000   0.500000 )  
               a(3) = (  -0.500000  -0.500000   0.500000 )  

     reciprocal axes: (cart. coord. in units 2 pi/alat)
               b(1) = (  1.000000  0.000000  1.000000 )  
               b(2) = ( -1.000000  1.000000  0.000000 )  
               b(3) = (  0.000000 -1.000000  1.000000 )  


     PseudoPot. # 1 for Ag read from file:
     ../pseudo/Ag.pbe-n-rrkjus_psl.1.0.0.UPF
     MD5 check sum: d841cbfac2b0861aec33b46768a516bf
     Pseudo is Ultrasoft + core correction, Zval = 11.0
     Generated using "atomic" code by A. Dal Corso  v.6.2.2
     Using radial grid of 1237 points,  6 beta functions with: 
                l(1) =   0
                l(2) =   0
                l(3) =   1
                l(4) =   1
                l(5) =   2
                l(6) =   2
     Q(r) pseudized with 0 coefficients 


     atomic species   valence    mass     pseudopotential
        Ag            11.00   107.86000     Ag( 1.00)

     48 Sym. Ops., with inversion, found



   Cartesian axes

     site n.     atom                  positions (alat units)
         1           Ag  tau(   1) = (   0.0000000   0.0000000   0.0000000  )

     number of k points=    14  Marzari-Vanderbilt smearing, width (Ry)=  0.0200
                       cart. coord. in units 2pi/alat
        k(    1) = (   0.0000000   0.0000000   0.1666667), wk =   0.0555556
        k(    2) = (   0.0000000  -0.1666667   0.3333333), wk =   0.2222222
        k(    3) = (   0.0000000  -0.3333333   0.5000000), wk =   0.2222222
        k(    4) = (  -0.1666667   0.1666667   0.1666667), wk =   0.0740741
        k(    5) = (  -0.1666667  -0.1666667   0.5000000), wk =   0.2222222
        k(    6) = (  -0.1666667   0.6666667  -0.3333333), wk =   0.2222222
        k(    7) = (  -0.3333333   0.3333333   0.1666667), wk =   0.2222222
        k(    8) = (   0.5000000  -0.5000000   0.1666667), wk =   0.1111111
        k(    9) = (   0.5000000  -0.6666667   0.3333333), wk =   0.2222222
        k(   10) = (   0.0000000   0.0000000   0.5000000), wk =   0.0555556
        k(   11) = (   0.0000000  -0.1666667   0.6666667), wk =   0.2222222
        k(   12) = (  -0.1666667   0.8333333  -0.1666667), wk =   0.0740741
        k(   13) = (   0.5000000  -0.5000000   0.5000000), wk =   0.0185185
        k(   14) = (   0.0000000   0.0000000   0.8333333), wk =   0.0555556

     Dense  grid:     2347 G-vectors     FFT dimensions: (  20,  20,  20)

     Largest allocated arrays     est. size (Mb)     dimensions
        Kohn-Sham Wavefunctions         0.05 Mb     (     312,   10)
        NL pseudopotentials             0.09 Mb     (     312,   18)
        Each V/rho on FFT grid          0.12 Mb     (    8000)
        Each G-vector array             0.02 Mb     (    2347)
        G-vector shells                 0.00 Mb     (      52)
     Largest temporary arrays     est. size (Mb)     dimensions
        Auxiliary wavefunctions         0.19 Mb     (     312,   40)
        Each subspace H/S matrix        0.02 Mb     (      40,   40)
        Each <psi_i|beta_j> matrix      0.00 Mb     (      18,   10)
        Arrays for rho mixing           0.98 Mb     (    8000,    8)

     Initial potential from superposition of free atoms

     starting charge   10.99960, renormalised to   11.00000
     Starting wfc are    9 randomized atomic wfcs +    1 random wfc

     total cpu time spent up to now is        0.5 secs

     per-process dynamical memory:     8.6 Mb

     Self-consistent Calculation

     iteration #  1     ecut=    30.00 Ry     beta=0.70
     Davidson diagonalization with overlap
     ethr =  1.00E-02,  avg # of iterations =  4.3

     Threshold (ethr) on eigenvalues was too large:
     Diagonalizing with lowered threshold

     Davidson diagonalization with overlap
     ethr =  1.12E-04,  avg # of iterations =  2.2

     total cpu time spent up to now is        0.6 secs

     total energy              =     -84.16117902 Ry
     Harris-Foulkes estimate   =     -84.16916707 Ry
     estimated scf accuracy    <       0.01316523 Ry

     iteration #  2     ecut=    30.00 Ry     beta=0.70
     Davidson diagonalization with overlap
     ethr =  1.20E-04,  avg # of iterations =  2.0

     total cpu time spent up to now is        0.7 secs

     total energy              =     -84.16514945 Ry
     Harris-Foulkes estimate   =     -84.17004041 Ry
     estimated scf accuracy    <       0.00958413 Ry

     iteration #  3     ecut=    30.00 Ry     beta=0.70
     Davidson diagonalization with overlap
     ethr =  8.71E-05,  avg # of iterations =  2.1

     total cpu time spent up to now is        0.8 secs

     total energy              =     -84.16712809 Ry
     Harris-Foulkes estimate   =     -84.16705369 Ry
     estimated scf accuracy    <       0.00002342 Ry

     iteration #  4     ecut=    30.00 Ry     beta=0.70
     Davidson diagonalization with overlap
     ethr =  2.13E-07,  avg # of iterations =  2.8

     total cpu time spent up to now is        0.8 secs

     total energy              =     -84.16715617 Ry
     Harris-Foulkes estimate   =     -84.16715633 Ry
     estimated scf accuracy    <       0.00000266 Ry

     iteration #  5     ecut=    30.00 Ry     beta=0.70
     Davidson diagonalization with overlap
     ethr =  2.42E-08,  avg # of iterations =  1.0

     total cpu time spent up to now is        0.9 secs

     total energy              =     -84.16715593 Ry
     Harris-Foulkes estimate   =     -84.16715621 Ry
     estimated scf accuracy    <       0.00000140 Ry

     iteration #  6     ecut=    30.00 Ry     beta=0.70
     Davidson diagonalization with overlap
     ethr =  1.27E-08,  avg # of iterations =  1.1

     total cpu time spent up to now is        1.0 secs

     End of self-consistent calculation

          k = 0.0000 0.0000 0.1667 (   309 PWs)   bands (ev):

     6.2588   8.8983   8.8983   8.9722  10.1167  10.5144  32.0553  33.3931
    33.3931  35.0264

          k = 0.0000-0.1667 0.3333 (   302 PWs)   bands (ev):

     7.5124   8.5557   9.2477   9.9027  10.0486  10.7334  26.9371  30.3576
    31.6223  35.4069

          k = 0.0000-0.3333 0.5000 (   294 PWs)   bands (ev):

     7.4414   8.2166   9.9235  10.2406  11.3699  13.1977  20.3656  28.4078
    28.9010  35.9427

          k =-0.1667 0.1667 0.1667 (   297 PWs)   bands (ev):

     7.0672   8.6201   8.6201   9.9931  10.3542  10.3542  30.1044  30.1044
    31.7478  34.5855

          k =-0.1667-0.1667 0.5000 (   300 PWs)   bands (ev):

     8.0110   8.4863   9.1560   9.9188  10.7376  13.0559  23.9770  24.5513
    31.6995  33.0829

          k =-0.1667 0.6667-0.3333 (   300 PWs)   bands (ev):

     7.8883   8.4412   9.0849  10.2271  11.0484  16.8767  18.9680  23.1075
    30.8704  34.7342

          k =-0.3333 0.3333 0.1667 (   303 PWs)   bands (ev):

     7.7526   8.1729   9.4515  10.2629  10.4536  12.2931  23.5407  27.6774
    28.1614  36.0106

          k = 0.5000-0.5000 0.1667 (   306 PWs)   bands (ev):

     7.4959   7.9857  10.3500  10.4891  10.5361  15.2820  18.6876  26.7043
    26.8467  36.3760

          k = 0.5000-0.6667 0.3333 (   299 PWs)   bands (ev):

     7.9023   8.4481   9.2047  10.4111  10.5747  16.1855  21.2981  21.7982
    26.3767  38.2270

          k = 0.0000 0.0000 0.5000 (   305 PWs)   bands (ev):

     8.3248   8.7450   9.4269   9.4269   9.9663  12.1194  27.8635  27.8635
    28.8246  29.2019

          k = 0.0000-0.1667 0.6667 (   296 PWs)   bands (ev):

     7.9442   8.3749   9.3761   9.9870  11.2102  15.6046  21.5064  25.1449
    28.2213  31.7464

          k =-0.1667 0.8333-0.1667 (   288 PWs)   bands (ev):

     7.8905   7.8905   9.5161  11.0355  11.0355  20.0644  20.0644  20.4169
    30.9552  30.9552

          k = 0.5000-0.5000 0.5000 (   312 PWs)   bands (ev):

     8.4920   8.4920   8.4920  10.5035  10.5035  20.2772  20.7602  20.7602
    20.7602  44.4435

          k = 0.0000 0.0000 0.8333 (   282 PWs)   bands (ev):

     7.4820   7.5377  10.9527  10.9527  11.1621  18.7467  22.2159  22.2159
    27.9252  28.3734

     the Fermi energy is    13.2997 ev

!    total energy              =     -84.16715611 Ry
     Harris-Foulkes estimate   =     -84.16715612 Ry
     estimated scf accuracy    <       0.00000001 Ry

     The total energy is the sum of the following terms:

     one-electron contribution =      -2.22268923 Ry
     hartree contribution      =      13.81443775 Ry
     xc contribution           =     -22.36749280 Ry
     ewald contribution        =     -73.39120795 Ry
     smearing contrib. (-TS)   =      -0.00020388 Ry

     convergence has been achieved in   6 iterations

     Writing output data file Ag_exc2.save

     init_run     :      0.27s CPU      0.27s WALL (       1 calls)
     electrons    :      0.47s CPU      0.48s WALL (       1 calls)

     Called by init_run:
     wfcinit      :      0.02s CPU      0.02s WALL (       1 calls)
     potinit      :      0.00s CPU      0.00s WALL (       1 calls)

     Called by electrons:
     c_bands      :      0.32s CPU      0.33s WALL (       7 calls)
     sum_band     :      0.09s CPU      0.09s WALL (       7 calls)
     v_of_rho     :      0.02s CPU      0.02s WALL (       7 calls)
     newd         :      0.04s CPU      0.04s WALL (       7 calls)
     mix_rho      :      0.00s CPU      0.00s WALL (       7 calls)

     Called by c_bands:
     init_us_2    :      0.02s CPU      0.02s WALL (     210 calls)
     cegterg      :      0.29s CPU      0.30s WALL (      98 calls)

     Called by *egterg:
     h_psi        :      0.19s CPU      0.19s WALL (     329 calls)
     s_psi        :      0.02s CPU      0.02s WALL (     329 calls)
     g_psi        :      0.00s CPU      0.00s WALL (     217 calls)
     cdiaghg      :      0.03s CPU      0.04s WALL (     301 calls)

     Called by h_psi:
     add_vuspsi   :      0.02s CPU      0.02s WALL (     329 calls)

     General routines
     calbec       :      0.02s CPU      0.03s WALL (     427 calls)
     fft          :      0.00s CPU      0.00s WALL (      93 calls)
     fftw         :      0.14s CPU      0.14s WALL (    5876 calls)
     davcio       :      0.00s CPU      0.00s WALL (      14 calls)

     Parallel routines
     fft_scatter  :      0.02s CPU      0.02s WALL (    5969 calls)

     PWSCF        :     0.97s CPU         0.99s WALL


   This run was terminated on:   6:52:20  30Apr2020            

=------------------------------------------------------------------------------=
   JOB DONE.
=------------------------------------------------------------------------------=
