
     Program PWSCF v.5.1 starts on 30Apr2020 at  6:45:27 

     This program is part of the open-source Quantum ESPRESSO suite
     for quantum simulation of materials; please cite
         "P. Giannozzi et al., J. Phys.:Condens. Matter 21 395502 (2009);
          URL http://www.quantum-espresso.org", 
     in publications or presentations arising from this work. More details at
     http://www.quantum-espresso.org/quote

     Parallel version (MPI), running on     1 processors
     Waiting for input...
     Reading input from standard input

     Current dimensions of program PWSCF are:
     Max number of different atomic species (ntypx) = 10
     Max number of k-points (npk) =  40000
     Max angular momentum in pseudopotentials (lmaxx) =  3

     Subspace diagonalization in iterative solution of the eigenvalue problem:
     a serial algorithm will be used


     G-vector sticks info
     --------------------
     sticks:   dense  smooth     PW     G-vecs:    dense   smooth      PW
     Sum         411     411    129                 5233     5233     959



     bravais-lattice index     =            3
     lattice parameter (alat)  =       7.7500  a.u.
     unit-cell volume          =     232.7422 (a.u.)^3
     number of atoms/cell      =            1
     number of atomic types    =            1
     number of electrons       =        11.00
     number of Kohn-Sham states=           10
     kinetic-energy cutoff     =      30.0000  Ry
     charge density cutoff     =     120.0000  Ry
     convergence threshold     =      1.0E-06
     mixing beta               =       0.7000
     number of iterations used =            8  plain     mixing
     Exchange-correlation      = PBE ( 1  4  3  4 0)

     celldm(1)=   7.750000  celldm(2)=   0.000000  celldm(3)=   0.000000
     celldm(4)=   0.000000  celldm(5)=   0.000000  celldm(6)=   0.000000

     crystal axes: (cart. coord. in units of alat)
               a(1) = (   0.500000   0.500000   0.500000 )  
               a(2) = (  -0.500000   0.500000   0.500000 )  
               a(3) = (  -0.500000  -0.500000   0.500000 )  

     reciprocal axes: (cart. coord. in units 2 pi/alat)
               b(1) = (  1.000000  0.000000  1.000000 )  
               b(2) = ( -1.000000  1.000000  0.000000 )  
               b(3) = (  0.000000 -1.000000  1.000000 )  


     PseudoPot. # 1 for Ag read from file:
     ../pseudo/Ag.pbe-n-rrkjus_psl.1.0.0.UPF
     MD5 check sum: d841cbfac2b0861aec33b46768a516bf
     Pseudo is Ultrasoft + core correction, Zval = 11.0
     Generated using "atomic" code by A. Dal Corso  v.6.2.2
     Using radial grid of 1237 points,  6 beta functions with: 
                l(1) =   0
                l(2) =   0
                l(3) =   1
                l(4) =   1
                l(5) =   2
                l(6) =   2
     Q(r) pseudized with 0 coefficients 


     atomic species   valence    mass     pseudopotential
        Ag            11.00   107.86000     Ag( 1.00)

     48 Sym. Ops., with inversion, found



   Cartesian axes

     site n.     atom                  positions (alat units)
         1           Ag  tau(   1) = (   0.0000000   0.0000000   0.0000000  )

     number of k points=    14  Marzari-Vanderbilt smearing, width (Ry)=  0.0200
                       cart. coord. in units 2pi/alat
        k(    1) = (   0.0000000   0.0000000   0.1666667), wk =   0.0555556
        k(    2) = (   0.0000000  -0.1666667   0.3333333), wk =   0.2222222
        k(    3) = (   0.0000000  -0.3333333   0.5000000), wk =   0.2222222
        k(    4) = (  -0.1666667   0.1666667   0.1666667), wk =   0.0740741
        k(    5) = (  -0.1666667  -0.1666667   0.5000000), wk =   0.2222222
        k(    6) = (  -0.1666667   0.6666667  -0.3333333), wk =   0.2222222
        k(    7) = (  -0.3333333   0.3333333   0.1666667), wk =   0.2222222
        k(    8) = (   0.5000000  -0.5000000   0.1666667), wk =   0.1111111
        k(    9) = (   0.5000000  -0.6666667   0.3333333), wk =   0.2222222
        k(   10) = (   0.0000000   0.0000000   0.5000000), wk =   0.0555556
        k(   11) = (   0.0000000  -0.1666667   0.6666667), wk =   0.2222222
        k(   12) = (  -0.1666667   0.8333333  -0.1666667), wk =   0.0740741
        k(   13) = (   0.5000000  -0.5000000   0.5000000), wk =   0.0185185
        k(   14) = (   0.0000000   0.0000000   0.8333333), wk =   0.0555556

     Dense  grid:     5233 G-vectors     FFT dimensions: (  24,  24,  24)

     Largest allocated arrays     est. size (Mb)     dimensions
        Kohn-Sham Wavefunctions         0.10 Mb     (     664,   10)
        NL pseudopotentials             0.18 Mb     (     664,   18)
        Each V/rho on FFT grid          0.21 Mb     (   13824)
        Each G-vector array             0.04 Mb     (    5233)
        G-vector shells                 0.00 Mb     (      86)
     Largest temporary arrays     est. size (Mb)     dimensions
        Auxiliary wavefunctions         0.41 Mb     (     664,   40)
        Each subspace H/S matrix        0.02 Mb     (      40,   40)
        Each <psi_i|beta_j> matrix      0.00 Mb     (      18,   10)
        Arrays for rho mixing           1.69 Mb     (   13824,    8)

     Initial potential from superposition of free atoms

     starting charge   10.99960, renormalised to   11.00000
     Starting wfc are    9 randomized atomic wfcs +    1 random wfc

     total cpu time spent up to now is        0.6 secs

     per-process dynamical memory:    11.3 Mb

     Self-consistent Calculation

     iteration #  1     ecut=    30.00 Ry     beta=0.70
     Davidson diagonalization with overlap
     ethr =  1.00E-02,  avg # of iterations =  3.6

     Threshold (ethr) on eigenvalues was too large:
     Diagonalizing with lowered threshold

     Davidson diagonalization with overlap
     ethr =  7.94E-05,  avg # of iterations =  2.4

     total cpu time spent up to now is        0.9 secs

     total energy              =     -84.10224625 Ry
     Harris-Foulkes estimate   =     -84.10534172 Ry
     estimated scf accuracy    <       0.00826379 Ry

     iteration #  2     ecut=    30.00 Ry     beta=0.70
     Davidson diagonalization with overlap
     ethr =  7.51E-05,  avg # of iterations =  2.0

     total cpu time spent up to now is        1.1 secs

     total energy              =     -84.10359013 Ry
     Harris-Foulkes estimate   =     -84.10643148 Ry
     estimated scf accuracy    <       0.00538679 Ry

     iteration #  3     ecut=    30.00 Ry     beta=0.70
     Davidson diagonalization with overlap
     ethr =  4.90E-05,  avg # of iterations =  2.3

     total cpu time spent up to now is        1.3 secs

     total energy              =     -84.10501166 Ry
     Harris-Foulkes estimate   =     -84.10499943 Ry
     estimated scf accuracy    <       0.00020296 Ry

     iteration #  4     ecut=    30.00 Ry     beta=0.70
     Davidson diagonalization with overlap
     ethr =  1.85E-06,  avg # of iterations =  2.6

     total cpu time spent up to now is        1.5 secs

     total energy              =     -84.10504304 Ry
     Harris-Foulkes estimate   =     -84.10504182 Ry
     estimated scf accuracy    <       0.00000120 Ry

     iteration #  5     ecut=    30.00 Ry     beta=0.70
     Davidson diagonalization with overlap
     ethr =  1.09E-08,  avg # of iterations =  2.6

     total cpu time spent up to now is        1.7 secs

     End of self-consistent calculation

          k = 0.0000 0.0000 0.1667 (   639 PWs)   bands (ev):

     0.2520   0.5119   0.5119   0.5593   0.8330   0.9162  16.0027  16.3022
    16.3022  17.2453

          k = 0.0000-0.1667 0.3333 (   641 PWs)   bands (ev):

     0.4044   0.4430   0.7761   0.8143   0.8312   1.5418  11.4476  14.1752
    14.7331  17.3284

          k = 0.0000-0.3333 0.5000 (   645 PWs)   bands (ev):

     0.2392   0.3698   0.8114   0.8615   1.1027   3.8053   7.1578  12.8114
    13.7442  17.4102

          k =-0.1667 0.1667 0.1667 (   643 PWs)   bands (ev):

     0.4542   0.4542   0.5029   0.8607   0.8607   1.0474  13.3590  14.4194
    14.4194  19.2903

          k =-0.1667-0.1667 0.5000 (   650 PWs)   bands (ev):

     0.3736   0.4815   0.7066   0.7762   0.9638   3.2516   9.3885  10.4073
    14.8268  16.7425

          k =-0.1667 0.6667-0.3333 (   654 PWs)   bands (ev):

     0.3317   0.4538   0.6643   0.8580   1.0402   5.7929   6.2631   9.4162
    14.5656  17.1252

          k =-0.3333 0.3333 0.1667 (   647 PWs)   bands (ev):

     0.3318   0.3686   0.8243   0.8609   0.8919   2.7177   9.2487  12.1797
    12.9491  19.1335

          k = 0.5000-0.5000 0.1667 (   642 PWs)   bands (ev):

     0.2675   0.3304   0.8669   0.9200   1.0261   5.4310   5.5715  11.4959
    12.4352  18.8680

          k = 0.5000-0.6667 0.3333 (   649 PWs)   bands (ev):

     0.3178   0.4756   0.7275   0.8895   0.9269   4.9324   7.7532   8.8303
    11.6380  20.7583

          k = 0.0000 0.0000 0.5000 (   639 PWs)   bands (ev):

     0.5456   0.6269   0.7015   0.7015   0.7924   2.6511  12.1159  12.1159
    12.1574  14.2428

          k = 0.0000-0.1667 0.6667 (   649 PWs)   bands (ev):

     0.3658   0.5012   0.6761   0.8221   1.0498   4.8524   8.1725  10.8000
    12.2493  15.1134

          k =-0.1667 0.8333-0.1667 (   655 PWs)   bands (ev):

     0.3493   0.3493   0.6910   1.0218   1.0218   6.8646   7.9782   7.9782
    13.3204  15.0803

          k = 0.5000-0.5000 0.5000 (   664 PWs)   bands (ev):

     0.4907   0.4907   0.4907   0.8852   0.8852   6.3772   8.2656   8.2656
     8.2656  24.9831

          k = 0.0000 0.0000 0.8333 (   650 PWs)   bands (ev):

     0.2223   0.2542   1.0188   1.0188   1.0391   6.8403   9.4517   9.4517
    10.3740  12.8980

     the Fermi energy is     3.8981 ev

!    total energy              =     -84.10504342 Ry
     Harris-Foulkes estimate   =     -84.10504352 Ry
     estimated scf accuracy    <       0.00000012 Ry

     The total energy is the sum of the following terms:

     one-electron contribution =     -28.30502483 Ry
     hartree contribution      =      23.19435384 Ry
     xc contribution           =     -22.17498772 Ry
     ewald contribution        =     -56.81899970 Ry
     smearing contrib. (-TS)   =      -0.00038501 Ry

     convergence has been achieved in   5 iterations

     Writing output data file Ag_exc2.save

     init_run     :      0.37s CPU      0.37s WALL (       1 calls)
     electrons    :      1.07s CPU      1.10s WALL (       1 calls)

     Called by init_run:
     wfcinit      :      0.05s CPU      0.05s WALL (       1 calls)
     potinit      :      0.01s CPU      0.01s WALL (       1 calls)

     Called by electrons:
     c_bands      :      0.76s CPU      0.78s WALL (       6 calls)
     sum_band     :      0.21s CPU      0.21s WALL (       6 calls)
     v_of_rho     :      0.04s CPU      0.04s WALL (       6 calls)
     newd         :      0.08s CPU      0.08s WALL (       6 calls)
     mix_rho      :      0.00s CPU      0.00s WALL (       6 calls)

     Called by c_bands:
     init_us_2    :      0.04s CPU      0.04s WALL (     182 calls)
     cegterg      :      0.71s CPU      0.73s WALL (      84 calls)

     Called by *egterg:
     h_psi        :      0.57s CPU      0.59s WALL (     314 calls)
     s_psi        :      0.03s CPU      0.03s WALL (     314 calls)
     g_psi        :      0.00s CPU      0.00s WALL (     216 calls)
     cdiaghg      :      0.03s CPU      0.03s WALL (     286 calls)

     Called by h_psi:
     add_vuspsi   :      0.03s CPU      0.03s WALL (     314 calls)

     General routines
     calbec       :      0.05s CPU      0.05s WALL (     398 calls)
     fft          :      0.02s CPU      0.02s WALL (      80 calls)
     fftw         :      0.53s CPU      0.55s WALL (    5276 calls)
     davcio       :      0.00s CPU      0.00s WALL (      14 calls)

     Parallel routines
     fft_scatter  :      0.03s CPU      0.03s WALL (    5356 calls)

     PWSCF        :     1.67s CPU         1.71s WALL


   This run was terminated on:   6:45:28  30Apr2020            

=------------------------------------------------------------------------------=
   JOB DONE.
=------------------------------------------------------------------------------=
