
     Program PWSCF v.5.1 starts on 18Feb2020 at 21:17: 7 

     This program is part of the open-source Quantum ESPRESSO suite
     for quantum simulation of materials; please cite
         "P. Giannozzi et al., J. Phys.:Condens. Matter 21 395502 (2009);
          URL http://www.quantum-espresso.org", 
     in publications or presentations arising from this work. More details at
     http://www.quantum-espresso.org/quote

     Parallel version (MPI), running on     1 processors
     Waiting for input...
     Reading input from standard input

     Current dimensions of program PWSCF are:
     Max number of different atomic species (ntypx) = 10
     Max number of k-points (npk) =  40000
     Max angular momentum in pseudopotentials (lmaxx) =  3

     Subspace diagonalization in iterative solution of the eigenvalue problem:
     a serial algorithm will be used


     G-vector sticks info
     --------------------
     sticks:   dense  smooth     PW     G-vecs:    dense   smooth      PW
     Sum         399     399    129                 5089     5089     959



     bravais-lattice index     =            3
     lattice parameter (alat)  =       7.7200  a.u.
     unit-cell volume          =     230.0498 (a.u.)^3
     number of atoms/cell      =            1
     number of atomic types    =            1
     number of electrons       =        11.00
     number of Kohn-Sham states=           10
     kinetic-energy cutoff     =      30.0000  Ry
     charge density cutoff     =     120.0000  Ry
     convergence threshold     =      1.0E-06
     mixing beta               =       0.7000
     number of iterations used =            8  plain     mixing
     Exchange-correlation      = PBE ( 1  4  3  4 0)

     celldm(1)=   7.720000  celldm(2)=   0.000000  celldm(3)=   0.000000
     celldm(4)=   0.000000  celldm(5)=   0.000000  celldm(6)=   0.000000

     crystal axes: (cart. coord. in units of alat)
               a(1) = (   0.500000   0.500000   0.500000 )  
               a(2) = (  -0.500000   0.500000   0.500000 )  
               a(3) = (  -0.500000  -0.500000   0.500000 )  

     reciprocal axes: (cart. coord. in units 2 pi/alat)
               b(1) = (  1.000000  0.000000  1.000000 )  
               b(2) = ( -1.000000  1.000000  0.000000 )  
               b(3) = (  0.000000 -1.000000  1.000000 )  


     PseudoPot. # 1 for Ag read from file:
     ../pseudo/Ag.pbe-n-rrkjus_psl.1.0.0.UPF
     MD5 check sum: d841cbfac2b0861aec33b46768a516bf
     Pseudo is Ultrasoft + core correction, Zval = 11.0
     Generated using "atomic" code by A. Dal Corso  v.6.2.2
     Using radial grid of 1237 points,  6 beta functions with: 
                l(1) =   0
                l(2) =   0
                l(3) =   1
                l(4) =   1
                l(5) =   2
                l(6) =   2
     Q(r) pseudized with 0 coefficients 


     atomic species   valence    mass     pseudopotential
        Ag            11.00   107.86000     Ag( 1.00)

     48 Sym. Ops., with inversion, found


                                    s                        frac. trans.

      isym =  1     identity                                     

 cryst.   s( 1) = (     1          0          0      )
                  (     0          1          0      )
                  (     0          0          1      )

 cart.    s( 1) = (  1.0000000  0.0000000  0.0000000 )
                  (  0.0000000  1.0000000  0.0000000 )
                  (  0.0000000  0.0000000  1.0000000 )


      isym =  2     180 deg rotation - cart. axis [0,0,1]        

 cryst.   s( 2) = (     0          0          1      )
                  (     1         -1          1      )
                  (     1          0          0      )

 cart.    s( 2) = ( -1.0000000  0.0000000  0.0000000 )
                  (  0.0000000 -1.0000000  0.0000000 )
                  (  0.0000000  0.0000000  1.0000000 )


      isym =  3     180 deg rotation - cart. axis [0,1,0]        

 cryst.   s( 3) = (    -1          1         -1      )
                  (     0          0         -1      )
                  (     0         -1          0      )

 cart.    s( 3) = ( -1.0000000  0.0000000  0.0000000 )
                  (  0.0000000  1.0000000  0.0000000 )
                  (  0.0000000  0.0000000 -1.0000000 )


      isym =  4     180 deg rotation - cart. axis [1,0,0]        

 cryst.   s( 4) = (     0         -1          0      )
                  (    -1          0          0      )
                  (    -1          1         -1      )

 cart.    s( 4) = (  1.0000000  0.0000000  0.0000000 )
                  (  0.0000000 -1.0000000  0.0000000 )
                  (  0.0000000  0.0000000 -1.0000000 )


      isym =  5     180 deg rotation - cart. axis [1,1,0]        

 cryst.   s( 5) = (     0          0         -1      )
                  (     0         -1          0      )
                  (    -1          0          0      )

 cart.    s( 5) = (  0.0000000  1.0000000  0.0000000 )
                  (  1.0000000  0.0000000  0.0000000 )
                  (  0.0000000  0.0000000 -1.0000000 )


      isym =  6     180 deg rotation - cart. axis [1,-1,0]       

 cryst.   s( 6) = (    -1          0          0      )
                  (    -1          1         -1      )
                  (     0          0         -1      )

 cart.    s( 6) = (  0.0000000 -1.0000000  0.0000000 )
                  ( -1.0000000  0.0000000  0.0000000 )
                  (  0.0000000  0.0000000 -1.0000000 )


      isym =  7      90 deg rotation - cart. axis [0,0,-1]       

 cryst.   s( 7) = (     1         -1          1      )
                  (     1          0          0      )
                  (     0          1          0      )

 cart.    s( 7) = (  0.0000000  1.0000000  0.0000000 )
                  ( -1.0000000  0.0000000  0.0000000 )
                  (  0.0000000  0.0000000  1.0000000 )


      isym =  8      90 deg rotation - cart. axis [0,0,1]        

 cryst.   s( 8) = (     0          1          0      )
                  (     0          0          1      )
                  (     1         -1          1      )

 cart.    s( 8) = (  0.0000000 -1.0000000  0.0000000 )
                  (  1.0000000  0.0000000  0.0000000 )
                  (  0.0000000  0.0000000  1.0000000 )


      isym =  9     180 deg rotation - cart. axis [1,0,1]        

 cryst.   s( 9) = (     1         -1          1      )
                  (     0         -1          0      )
                  (     0          0         -1      )

 cart.    s( 9) = (  0.0000000  0.0000000  1.0000000 )
                  (  0.0000000 -1.0000000  0.0000000 )
                  (  1.0000000  0.0000000  0.0000000 )


      isym = 10     180 deg rotation - cart. axis [-1,0,1]       

 cryst.   s(10) = (    -1          0          0      )
                  (     0          0          1      )
                  (     0          1          0      )

 cart.    s(10) = (  0.0000000  0.0000000 -1.0000000 )
                  (  0.0000000 -1.0000000  0.0000000 )
                  ( -1.0000000  0.0000000  0.0000000 )


      isym = 11      90 deg rotation - cart. axis [0,1,0]        

 cryst.   s(11) = (     0          0         -1      )
                  (     1          0          0      )
                  (     1         -1          1      )

 cart.    s(11) = (  0.0000000  0.0000000  1.0000000 )
                  (  0.0000000  1.0000000  0.0000000 )
                  ( -1.0000000  0.0000000  0.0000000 )


      isym = 12      90 deg rotation - cart. axis [0,-1,0]       

 cryst.   s(12) = (     0          1          0      )
                  (    -1          1         -1      )
                  (    -1          0          0      )

 cart.    s(12) = (  0.0000000  0.0000000 -1.0000000 )
                  (  0.0000000  1.0000000  0.0000000 )
                  (  1.0000000  0.0000000  0.0000000 )


      isym = 13     180 deg rotation - cart. axis [0,1,1]        

 cryst.   s(13) = (     0          1          0      )
                  (     1          0          0      )
                  (     0          0         -1      )

 cart.    s(13) = ( -1.0000000  0.0000000  0.0000000 )
                  (  0.0000000  0.0000000  1.0000000 )
                  (  0.0000000  1.0000000  0.0000000 )


      isym = 14     180 deg rotation - cart. axis [0,1,-1]       

 cryst.   s(14) = (    -1          0          0      )
                  (     0         -1          0      )
                  (     1         -1          1      )

 cart.    s(14) = ( -1.0000000  0.0000000  0.0000000 )
                  (  0.0000000  0.0000000 -1.0000000 )
                  (  0.0000000 -1.0000000  0.0000000 )


      isym = 15      90 deg rotation - cart. axis [-1,0,0]       

 cryst.   s(15) = (     0          0         -1      )
                  (    -1          1         -1      )
                  (     0          1          0      )

 cart.    s(15) = (  1.0000000  0.0000000  0.0000000 )
                  (  0.0000000  0.0000000  1.0000000 )
                  (  0.0000000 -1.0000000  0.0000000 )


      isym = 16      90 deg rotation - cart. axis [1,0,0]        

 cryst.   s(16) = (     1         -1          1      )
                  (     0          0          1      )
                  (    -1          0          0      )

 cart.    s(16) = (  1.0000000  0.0000000  0.0000000 )
                  (  0.0000000  0.0000000 -1.0000000 )
                  (  0.0000000  1.0000000  0.0000000 )


      isym = 17     120 deg rotation - cart. axis [-1,-1,-1]     

 cryst.   s(17) = (     1          0          0      )
                  (     0          0         -1      )
                  (    -1          1         -1      )

 cart.    s(17) = (  0.0000000  1.0000000  0.0000000 )
                  (  0.0000000  0.0000000  1.0000000 )
                  (  1.0000000  0.0000000  0.0000000 )


      isym = 18     120 deg rotation - cart. axis [-1,1,1]       

 cryst.   s(18) = (    -1          1         -1      )
                  (     0          1          0      )
                  (     1          0          0      )

 cart.    s(18) = (  0.0000000 -1.0000000  0.0000000 )
                  (  0.0000000  0.0000000  1.0000000 )
                  ( -1.0000000  0.0000000  0.0000000 )


      isym = 19     120 deg rotation - cart. axis [1,1,-1]       

 cryst.   s(19) = (     0         -1          0      )
                  (     1         -1          1      )
                  (     0          0          1      )

 cart.    s(19) = (  0.0000000  1.0000000  0.0000000 )
                  (  0.0000000  0.0000000 -1.0000000 )
                  ( -1.0000000  0.0000000  0.0000000 )


      isym = 20     120 deg rotation - cart. axis [1,-1,1]       

 cryst.   s(20) = (     0          0          1      )
                  (    -1          0          0      )
                  (     0         -1          0      )

 cart.    s(20) = (  0.0000000 -1.0000000  0.0000000 )
                  (  0.0000000  0.0000000 -1.0000000 )
                  (  1.0000000  0.0000000  0.0000000 )


      isym = 21     120 deg rotation - cart. axis [1,1,1]        

 cryst.   s(21) = (     1          0          0      )
                  (     1         -1          1      )
                  (     0         -1          0      )

 cart.    s(21) = (  0.0000000  0.0000000  1.0000000 )
                  (  1.0000000  0.0000000  0.0000000 )
                  (  0.0000000  1.0000000  0.0000000 )


      isym = 22     120 deg rotation - cart. axis [-1,1,-1]      

 cryst.   s(22) = (     0         -1          0      )
                  (     0          0         -1      )
                  (     1          0          0      )

 cart.    s(22) = (  0.0000000  0.0000000  1.0000000 )
                  ( -1.0000000  0.0000000  0.0000000 )
                  (  0.0000000 -1.0000000  0.0000000 )


      isym = 23     120 deg rotation - cart. axis [1,-1,-1]      

 cryst.   s(23) = (     0          0          1      )
                  (     0          1          0      )
                  (    -1          1         -1      )

 cart.    s(23) = (  0.0000000  0.0000000 -1.0000000 )
                  ( -1.0000000  0.0000000  0.0000000 )
                  (  0.0000000  1.0000000  0.0000000 )


      isym = 24     120 deg rotation - cart. axis [-1,-1,1]      

 cryst.   s(24) = (    -1          1         -1      )
                  (    -1          0          0      )
                  (     0          0          1      )

 cart.    s(24) = (  0.0000000  0.0000000 -1.0000000 )
                  (  1.0000000  0.0000000  0.0000000 )
                  (  0.0000000 -1.0000000  0.0000000 )


      isym = 25     inversion                                    

 cryst.   s(25) = (    -1          0          0      )
                  (     0         -1          0      )
                  (     0          0         -1      )

 cart.    s(25) = ( -1.0000000  0.0000000  0.0000000 )
                  (  0.0000000 -1.0000000  0.0000000 )
                  (  0.0000000  0.0000000 -1.0000000 )


      isym = 26     inv. 180 deg rotation - cart. axis [0,0,1]   

 cryst.   s(26) = (     0          0         -1      )
                  (    -1          1         -1      )
                  (    -1          0          0      )

 cart.    s(26) = (  1.0000000  0.0000000  0.0000000 )
                  (  0.0000000  1.0000000  0.0000000 )
                  (  0.0000000  0.0000000 -1.0000000 )


      isym = 27     inv. 180 deg rotation - cart. axis [0,1,0]   

 cryst.   s(27) = (     1         -1          1      )
                  (     0          0          1      )
                  (     0          1          0      )

 cart.    s(27) = (  1.0000000  0.0000000  0.0000000 )
                  (  0.0000000 -1.0000000  0.0000000 )
                  (  0.0000000  0.0000000  1.0000000 )


      isym = 28     inv. 180 deg rotation - cart. axis [1,0,0]   

 cryst.   s(28) = (     0          1          0      )
                  (     1          0          0      )
                  (     1         -1          1      )

 cart.    s(28) = ( -1.0000000  0.0000000  0.0000000 )
                  (  0.0000000  1.0000000  0.0000000 )
                  (  0.0000000  0.0000000  1.0000000 )


      isym = 29     inv. 180 deg rotation - cart. axis [1,1,0]   

 cryst.   s(29) = (     0          0          1      )
                  (     0          1          0      )
                  (     1          0          0      )

 cart.    s(29) = (  0.0000000 -1.0000000  0.0000000 )
                  ( -1.0000000  0.0000000  0.0000000 )
                  (  0.0000000  0.0000000  1.0000000 )


      isym = 30     inv. 180 deg rotation - cart. axis [1,-1,0]  

 cryst.   s(30) = (     1          0          0      )
                  (     1         -1          1      )
                  (     0          0          1      )

 cart.    s(30) = (  0.0000000  1.0000000  0.0000000 )
                  (  1.0000000  0.0000000  0.0000000 )
                  (  0.0000000  0.0000000  1.0000000 )


      isym = 31     inv.  90 deg rotation - cart. axis [0,0,-1]  

 cryst.   s(31) = (    -1          1         -1      )
                  (    -1          0          0      )
                  (     0         -1          0      )

 cart.    s(31) = (  0.0000000 -1.0000000  0.0000000 )
                  (  1.0000000  0.0000000  0.0000000 )
                  (  0.0000000  0.0000000 -1.0000000 )


      isym = 32     inv.  90 deg rotation - cart. axis [0,0,1]   

 cryst.   s(32) = (     0         -1          0      )
                  (     0          0         -1      )
                  (    -1          1         -1      )

 cart.    s(32) = (  0.0000000  1.0000000  0.0000000 )
                  ( -1.0000000  0.0000000  0.0000000 )
                  (  0.0000000  0.0000000 -1.0000000 )


      isym = 33     inv. 180 deg rotation - cart. axis [1,0,1]   

 cryst.   s(33) = (    -1          1         -1      )
                  (     0          1          0      )
                  (     0          0          1      )

 cart.    s(33) = (  0.0000000  0.0000000 -1.0000000 )
                  (  0.0000000  1.0000000  0.0000000 )
                  ( -1.0000000  0.0000000  0.0000000 )


      isym = 34     inv. 180 deg rotation - cart. axis [-1,0,1]  

 cryst.   s(34) = (     1          0          0      )
                  (     0          0         -1      )
                  (     0         -1          0      )

 cart.    s(34) = (  0.0000000  0.0000000  1.0000000 )
                  (  0.0000000  1.0000000  0.0000000 )
                  (  1.0000000  0.0000000  0.0000000 )


      isym = 35     inv.  90 deg rotation - cart. axis [0,1,0]   

 cryst.   s(35) = (     0          0          1      )
                  (    -1          0          0      )
                  (    -1          1         -1      )

 cart.    s(35) = (  0.0000000  0.0000000 -1.0000000 )
                  (  0.0000000 -1.0000000  0.0000000 )
                  (  1.0000000  0.0000000  0.0000000 )


      isym = 36     inv.  90 deg rotation - cart. axis [0,-1,0]  

 cryst.   s(36) = (     0         -1          0      )
                  (     1         -1          1      )
                  (     1          0          0      )

 cart.    s(36) = (  0.0000000  0.0000000  1.0000000 )
                  (  0.0000000 -1.0000000  0.0000000 )
                  ( -1.0000000  0.0000000  0.0000000 )


      isym = 37     inv. 180 deg rotation - cart. axis [0,1,1]   

 cryst.   s(37) = (     0         -1          0      )
                  (    -1          0          0      )
                  (     0          0          1      )

 cart.    s(37) = (  1.0000000  0.0000000  0.0000000 )
                  (  0.0000000  0.0000000 -1.0000000 )
                  (  0.0000000 -1.0000000  0.0000000 )


      isym = 38     inv. 180 deg rotation - cart. axis [0,1,-1]  

 cryst.   s(38) = (     1          0          0      )
                  (     0          1          0      )
                  (    -1          1         -1      )

 cart.    s(38) = (  1.0000000  0.0000000  0.0000000 )
                  (  0.0000000  0.0000000  1.0000000 )
                  (  0.0000000  1.0000000  0.0000000 )


      isym = 39     inv.  90 deg rotation - cart. axis [-1,0,0]  

 cryst.   s(39) = (     0          0          1      )
                  (     1         -1          1      )
                  (     0         -1          0      )

 cart.    s(39) = ( -1.0000000  0.0000000  0.0000000 )
                  (  0.0000000  0.0000000 -1.0000000 )
                  (  0.0000000  1.0000000  0.0000000 )


      isym = 40     inv.  90 deg rotation - cart. axis [1,0,0]   

 cryst.   s(40) = (    -1          1         -1      )
                  (     0          0         -1      )
                  (     1          0          0      )

 cart.    s(40) = ( -1.0000000  0.0000000  0.0000000 )
                  (  0.0000000  0.0000000  1.0000000 )
                  (  0.0000000 -1.0000000  0.0000000 )


      isym = 41     inv. 120 deg rotation - cart. axis [-1,-1,-1]

 cryst.   s(41) = (    -1          0          0      )
                  (     0          0          1      )
                  (     1         -1          1      )

 cart.    s(41) = (  0.0000000 -1.0000000  0.0000000 )
                  (  0.0000000  0.0000000 -1.0000000 )
                  ( -1.0000000  0.0000000  0.0000000 )


      isym = 42     inv. 120 deg rotation - cart. axis [-1,1,1]  

 cryst.   s(42) = (     1         -1          1      )
                  (     0         -1          0      )
                  (    -1          0          0      )

 cart.    s(42) = (  0.0000000  1.0000000  0.0000000 )
                  (  0.0000000  0.0000000 -1.0000000 )
                  (  1.0000000  0.0000000  0.0000000 )


      isym = 43     inv. 120 deg rotation - cart. axis [1,1,-1]  

 cryst.   s(43) = (     0          1          0      )
                  (    -1          1         -1      )
                  (     0          0         -1      )

 cart.    s(43) = (  0.0000000 -1.0000000  0.0000000 )
                  (  0.0000000  0.0000000  1.0000000 )
                  (  1.0000000  0.0000000  0.0000000 )


      isym = 44     inv. 120 deg rotation - cart. axis [1,-1,1]  

 cryst.   s(44) = (     0          0         -1      )
                  (     1          0          0      )
                  (     0          1          0      )

 cart.    s(44) = (  0.0000000  1.0000000  0.0000000 )
                  (  0.0000000  0.0000000  1.0000000 )
                  ( -1.0000000  0.0000000  0.0000000 )


      isym = 45     inv. 120 deg rotation - cart. axis [1,1,1]   

 cryst.   s(45) = (    -1          0          0      )
                  (    -1          1         -1      )
                  (     0          1          0      )

 cart.    s(45) = (  0.0000000  0.0000000 -1.0000000 )
                  ( -1.0000000  0.0000000  0.0000000 )
                  (  0.0000000 -1.0000000  0.0000000 )


      isym = 46     inv. 120 deg rotation - cart. axis [-1,1,-1] 

 cryst.   s(46) = (     0          1          0      )
                  (     0          0          1      )
                  (    -1          0          0      )

 cart.    s(46) = (  0.0000000  0.0000000 -1.0000000 )
                  (  1.0000000  0.0000000  0.0000000 )
                  (  0.0000000  1.0000000  0.0000000 )


      isym = 47     inv. 120 deg rotation - cart. axis [1,-1,-1] 

 cryst.   s(47) = (     0          0         -1      )
                  (     0         -1          0      )
                  (     1         -1          1      )

 cart.    s(47) = (  0.0000000  0.0000000  1.0000000 )
                  (  1.0000000  0.0000000  0.0000000 )
                  (  0.0000000 -1.0000000  0.0000000 )


      isym = 48     inv. 120 deg rotation - cart. axis [-1,-1,1] 

 cryst.   s(48) = (     1         -1          1      )
                  (     1          0          0      )
                  (     0          0         -1      )

 cart.    s(48) = (  0.0000000  0.0000000  1.0000000 )
                  ( -1.0000000  0.0000000  0.0000000 )
                  (  0.0000000  1.0000000  0.0000000 )


     point group O_h (m-3m) 
     there are 10 classes
     the character table:

       E     8C3   6C2'  6C4   3C2   i     6S4   8S6   3s_h  6s_d 
A_1g   1.00  1.00  1.00  1.00  1.00  1.00  1.00  1.00  1.00  1.00
A_2g   1.00  1.00 -1.00 -1.00  1.00  1.00 -1.00  1.00  1.00 -1.00
E_g    2.00 -1.00  0.00  0.00  2.00  2.00  0.00 -1.00  2.00  0.00
T_1g   3.00  0.00 -1.00  1.00 -1.00  3.00  1.00  0.00 -1.00 -1.00
T_2g   3.00  0.00  1.00 -1.00 -1.00  3.00 -1.00  0.00 -1.00  1.00
A_1u   1.00  1.00  1.00  1.00  1.00 -1.00 -1.00 -1.00 -1.00 -1.00
A_2u   1.00  1.00 -1.00 -1.00  1.00 -1.00  1.00 -1.00 -1.00  1.00
E_u    2.00 -1.00  0.00  0.00  2.00 -2.00  0.00  1.00 -2.00  0.00
T_1u   3.00  0.00 -1.00  1.00 -1.00 -3.00 -1.00  0.00  1.00  1.00
T_2u   3.00  0.00  1.00 -1.00 -1.00 -3.00  1.00  0.00  1.00 -1.00

     the symmetry operations in each class:
     E        1
     3C2      2    4    3
     6C2'     5    6   14   13   10    9
     6C4      7    8   15   16   12   11
     8C3     17   19   20   18   24   21   22   23
     i       25
     3s_h    26   28   27
     6s_d    29   30   38   37   34   33
     6S4     31   32   39   40   36   35
     8S6     41   43   44   42   48   45   46   47

   Cartesian axes

     site n.     atom                  positions (alat units)
         1           Ag  tau(   1) = (   0.0000000   0.0000000   0.0000000  )

   Crystallographic axes

     site n.     atom                  positions (cryst. coord.)
         1           Ag  tau(   1) = (  0.0000000  0.0000000  0.0000000  )

     number of k points=    26  Marzari-Vanderbilt smearing, width (Ry)=  0.0200
                       cart. coord. in units 2pi/alat
        k(    1) = (   0.0000000   0.0000000   0.1250000), wk =   0.0234375
        k(    2) = (   0.0000000  -0.1250000   0.2500000), wk =   0.0937500
        k(    3) = (   0.0000000  -0.2500000   0.3750000), wk =   0.0937500
        k(    4) = (   0.0000000  -0.3750000   0.5000000), wk =   0.0937500
        k(    5) = (  -0.1250000   0.1250000   0.1250000), wk =   0.0312500
        k(    6) = (  -0.1250000  -0.1250000   0.3750000), wk =   0.0937500
        k(    7) = (  -0.1250000  -0.2500000   0.5000000), wk =   0.1875000
        k(    8) = (  -0.1250000   0.6250000  -0.3750000), wk =   0.0937500
        k(    9) = (  -0.2500000   0.2500000   0.1250000), wk =   0.0937500
        k(   10) = (  -0.2500000   0.7500000  -0.3750000), wk =   0.0937500
        k(   11) = (  -0.3750000   0.3750000   0.1250000), wk =   0.0937500
        k(   12) = (  -0.3750000   0.2500000   0.2500000), wk =   0.0937500
        k(   13) = (   0.5000000  -0.5000000   0.1250000), wk =   0.0468750
        k(   14) = (   0.5000000  -0.6250000   0.2500000), wk =   0.1875000
        k(   15) = (   0.3750000  -0.6250000   0.3750000), wk =   0.0312500
        k(   16) = (   0.0000000   0.0000000   0.3750000), wk =   0.0234375
        k(   17) = (   0.0000000  -0.1250000   0.5000000), wk =   0.0937500
        k(   18) = (   0.0000000  -0.2500000   0.6250000), wk =   0.0937500
        k(   19) = (  -0.1250000  -0.1250000   0.6250000), wk =   0.0937500
        k(   20) = (  -0.1250000   0.7500000  -0.2500000), wk =   0.0937500
        k(   21) = (   0.6250000  -0.6250000   0.3750000), wk =   0.0312500
        k(   22) = (   0.5000000  -0.5000000   0.3750000), wk =   0.0468750
        k(   23) = (   0.0000000   0.0000000   0.6250000), wk =   0.0234375
        k(   24) = (   0.0000000  -0.1250000   0.7500000), wk =   0.0937500
        k(   25) = (  -0.1250000   0.8750000  -0.1250000), wk =   0.0312500
        k(   26) = (   0.0000000   0.0000000   0.8750000), wk =   0.0234375

                       cryst. coord.
        k(    1) = (   0.0625000   0.0625000   0.0625000), wk =   0.0234375
        k(    2) = (   0.0625000   0.0625000   0.1875000), wk =   0.0937500
        k(    3) = (   0.0625000   0.0625000   0.3125000), wk =   0.0937500
        k(    4) = (   0.0625000   0.0625000   0.4375000), wk =   0.0937500
        k(    5) = (   0.0625000   0.1875000   0.0625000), wk =   0.0312500
        k(    6) = (   0.0625000   0.1875000   0.3125000), wk =   0.0937500
        k(    7) = (   0.0625000   0.1875000   0.4375000), wk =   0.1875000
        k(    8) = (   0.0625000   0.1875000  -0.4375000), wk =   0.0937500
        k(    9) = (   0.0625000   0.3125000   0.0625000), wk =   0.0937500
        k(   10) = (   0.0625000   0.3125000  -0.4375000), wk =   0.0937500
        k(   11) = (   0.0625000   0.4375000   0.0625000), wk =   0.0937500
        k(   12) = (   0.0625000   0.4375000   0.1875000), wk =   0.0937500
        k(   13) = (   0.0625000  -0.4375000   0.0625000), wk =   0.0468750
        k(   14) = (   0.0625000  -0.4375000   0.1875000), wk =   0.1875000
        k(   15) = (   0.0625000  -0.3125000   0.3125000), wk =   0.0312500
        k(   16) = (   0.1875000   0.1875000   0.1875000), wk =   0.0234375
        k(   17) = (   0.1875000   0.1875000   0.3125000), wk =   0.0937500
        k(   18) = (   0.1875000   0.1875000   0.4375000), wk =   0.0937500
        k(   19) = (   0.1875000   0.3125000   0.4375000), wk =   0.0937500
        k(   20) = (   0.1875000   0.3125000  -0.4375000), wk =   0.0937500
        k(   21) = (   0.1875000  -0.4375000   0.1875000), wk =   0.0312500
        k(   22) = (   0.1875000  -0.3125000   0.1875000), wk =   0.0468750
        k(   23) = (   0.3125000   0.3125000   0.3125000), wk =   0.0234375
        k(   24) = (   0.3125000   0.3125000   0.4375000), wk =   0.0937500
        k(   25) = (   0.3125000   0.4375000  -0.4375000), wk =   0.0312500
        k(   26) = (   0.4375000   0.4375000   0.4375000), wk =   0.0234375

     Dense  grid:     5089 G-vectors     FFT dimensions: (  24,  24,  24)

     Largest allocated arrays     est. size (Mb)     dimensions
        Kohn-Sham Wavefunctions         0.10 Mb     (     650,   10)
        NL pseudopotentials             0.18 Mb     (     650,   18)
        Each V/rho on FFT grid          0.21 Mb     (   13824)
        Each G-vector array             0.04 Mb     (    5089)
        G-vector shells                 0.00 Mb     (      85)
     Largest temporary arrays     est. size (Mb)     dimensions
        Auxiliary wavefunctions         0.40 Mb     (     650,   40)
        Each subspace H/S matrix        0.02 Mb     (      40,   40)
        Each <psi_i|beta_j> matrix      0.00 Mb     (      18,   10)
        Arrays for rho mixing           1.69 Mb     (   13824,    8)

     Initial potential from superposition of free atoms

     starting charge   10.99960, renormalised to   11.00000
     Starting wfc are    9 randomized atomic wfcs +    1 random wfc

     total cpu time spent up to now is        7.9 secs

     per-process dynamical memory:    11.5 Mb

     Self-consistent Calculation

     iteration #  1     ecut=    30.00 Ry     beta=0.70
     Davidson diagonalization with overlap
     ethr =  1.00E-02,  avg # of iterations =  3.7

     Threshold (ethr) on eigenvalues was too large:
     Diagonalizing with lowered threshold

     Davidson diagonalization with overlap
     ethr =  7.47E-05,  avg # of iterations =  2.5

     total cpu time spent up to now is       15.9 secs

     total energy              =     -84.10124139 Ry
     Harris-Foulkes estimate   =     -84.10391930 Ry
     estimated scf accuracy    <       0.00776624 Ry

     iteration #  2     ecut=    30.00 Ry     beta=0.70
     Davidson diagonalization with overlap
     ethr =  7.06E-05,  avg # of iterations =  2.1

     total cpu time spent up to now is       19.0 secs

     total energy              =     -84.10244879 Ry
     Harris-Foulkes estimate   =     -84.10503778 Ry
     estimated scf accuracy    <       0.00490798 Ry

     iteration #  3     ecut=    30.00 Ry     beta=0.70
     Davidson diagonalization with overlap
     ethr =  4.46E-05,  avg # of iterations =  2.0

     total cpu time spent up to now is       23.3 secs

     total energy              =     -84.10376123 Ry
     Harris-Foulkes estimate   =     -84.10375405 Ry
     estimated scf accuracy    <       0.00021026 Ry

     iteration #  4     ecut=    30.00 Ry     beta=0.70
     Davidson diagonalization with overlap
     ethr =  1.91E-06,  avg # of iterations =  3.6

     total cpu time spent up to now is       27.3 secs

     total energy              =     -84.10379390 Ry
     Harris-Foulkes estimate   =     -84.10379272 Ry
     estimated scf accuracy    <       0.00000117 Ry

     iteration #  5     ecut=    30.00 Ry     beta=0.70
     Davidson diagonalization with overlap
     ethr =  1.07E-08,  avg # of iterations =  2.4

     total cpu time spent up to now is       30.8 secs

     End of self-consistent calculation

          k = 0.0000 0.0000 0.1250 (   639 PWs)   bands (ev):

     0.1962   0.5784   0.5784   0.6130   0.9330   0.9841  16.7702  17.0125
    17.0125  17.8896

     occupation numbers 
     1.0000   1.0000   1.0000   1.0000   1.0000   1.0000   0.0000   0.0000
     0.0000   0.0000

          k = 0.0000-0.1250 0.2500 (   637 PWs)   bands (ev):

     0.4892   0.5299   0.7646   0.8350   0.8864   1.0924  13.3776  15.3688
    15.7407  17.6643

     occupation numbers 
     1.0000   1.0000   1.0000   1.0000   1.0000   1.0000   0.0000   0.0000
     0.0000   0.0000

          k = 0.0000-0.2500 0.3750 (   636 PWs)   bands (ev):

     0.3863   0.4694   0.8970   0.9605   1.0358   2.2636   9.8324  13.9299
    14.6205  17.5263

     occupation numbers 
     1.0000   1.0000   1.0000   1.0000   1.0000   1.0000   0.0000   0.0000
     0.0000   0.0000

          k = 0.0000-0.3750 0.5000 (   643 PWs)   bands (ev):

     0.2840   0.4170   0.9058   0.9598   1.2197   4.2002   6.7437  13.1039
    14.0174  17.3439

     occupation numbers 
     1.0000   1.0000   1.0000   1.0000   1.0000   0.5552   0.0000   0.0000
     0.0000   0.0000

          k =-0.1250 0.1250 0.1250 (   637 PWs)   bands (ev):

     0.4241   0.5513   0.5513   0.8101   0.9558   0.9558  14.8348  15.6546
    15.6546  19.0150

     occupation numbers 
     1.0000   1.0000   1.0000   1.0000   1.0000   1.0000   0.0000   0.0000
     0.0000   0.0000

          k =-0.1250-0.1250 0.3750 (   644 PWs)   bands (ev):

     0.4669   0.5964   0.7744   0.8389   0.9530   1.9685  11.4929  12.4284
    15.4045  17.1137

     occupation numbers 
     1.0000   1.0000   1.0000   1.0000   1.0000   1.0000   0.0000   0.0000
     0.0000   0.0000

          k =-0.1250-0.2500 0.5000 (   634 PWs)   bands (ev):

     0.4057   0.5329   0.8423   0.9216   1.0993   3.5766   8.5443  11.1165
    14.6906  17.2423

     occupation numbers 
     1.0000   1.0000   1.0000   1.0000   1.0000   1.0102   0.0000   0.0000
     0.0000   0.0000

          k =-0.1250 0.6250-0.3750 (   632 PWs)   bands (ev):

     0.3622   0.5068   0.8601   0.9395   1.2008   5.6874   5.8947  10.7369
    14.3867  17.2007

     occupation numbers 
     1.0000   1.0000   1.0000   1.0000   1.0000   0.0000   0.0000   0.0000
     0.0000   0.0000

          k =-0.2500 0.2500 0.1250 (   635 PWs)   bands (ev):

     0.4629   0.4827   0.7958   0.9342   0.9782   1.6688  11.5461  13.7232
    14.3051  18.8964

     occupation numbers 
     1.0000   1.0000   1.0000   1.0000   1.0000   1.0000   0.0000   0.0000
     0.0000   0.0000

          k =-0.2500 0.7500-0.3750 (   638 PWs)   bands (ev):

     0.4282   0.5805   0.7246   0.9841   1.1035   5.4337   7.6191   8.4750
    14.6996  17.9880

     occupation numbers 
     1.0000   1.0000   1.0000   1.0000   1.0000   0.0000   0.0000   0.0000
     0.0000   0.0000

          k =-0.3750 0.3750 0.1250 (   636 PWs)   bands (ev):

     0.3446   0.4282   0.9384   1.0029   1.0651   3.2620   8.2731  12.6146
    13.4387  18.4394

     occupation numbers 
     1.0000   1.0000   1.0000   1.0000   1.0000   1.0001   0.0000   0.0000
     0.0000   0.0000

          k =-0.3750 0.2500 0.2500 (   637 PWs)   bands (ev):

     0.4204   0.5213   0.8227   0.9433   0.9999   2.9834   9.8235  11.0282
    12.9493  19.9103

     occupation numbers 
     1.0000   1.0000   1.0000   1.0000   1.0000   1.0000   0.0000   0.0000
     0.0000   0.0000

          k = 0.5000-0.5000 0.1250 (   638 PWs)   bands (ev):

     0.2989   0.4012   0.9402   1.0093   1.1722   5.4795   5.4892  12.2200
    13.1389  18.2800

     occupation numbers 
     1.0000   1.0000   1.0000   1.0000   1.0000   0.0000   0.0000   0.0000
     0.0000   0.0000

          k = 0.5000-0.6250 0.2500 (   636 PWs)   bands (ev):

     0.3780   0.5052   0.8995   0.9770   1.0459   4.8619   7.3026   9.9192
    12.3479  19.7237

     occupation numbers 
     1.0000   1.0000   1.0000   1.0000   1.0000   0.0001   0.0000   0.0000
     0.0000   0.0000

          k = 0.3750-0.6250 0.3750 (   646 PWs)   bands (ev):

     0.3687   0.6901   0.6901   1.0015   1.0015   6.2793   7.4928   7.4928
    12.0575  21.2289

     occupation numbers 
     1.0000   1.0000   1.0000   1.0000   1.0000   0.0000   0.0000   0.0000
     0.0000   0.0000

          k = 0.0000 0.0000 0.3750 (   631 PWs)   bands (ev):

     0.6871   0.6871   0.7516   0.7689   0.7883   1.6572  13.5356  13.7588
    13.7588  15.3213

     occupation numbers 
     1.0000   1.0000   1.0000   1.0000   1.0000   1.0000   0.0000   0.0000
     0.0000   0.0000

          k = 0.0000-0.1250 0.5000 (   637 PWs)   bands (ev):

     0.5405   0.6623   0.7040   0.8545   0.9989   2.9015  10.3593  12.3890
    13.3176  15.6005

     occupation numbers 
     1.0000   1.0000   1.0000   1.0000   1.0000   1.0000   0.0000   0.0000
     0.0000   0.0000

          k = 0.0000-0.2500 0.6250 (   635 PWs)   bands (ev):

     0.4202   0.6215   0.7202   0.8980   1.1959   4.8107   7.3395  11.6112
    12.9252  17.1317

     occupation numbers 
     1.0000   1.0000   1.0000   1.0000   1.0000   0.0003   0.0000   0.0000
     0.0000   0.0000

          k =-0.1250-0.1250 0.6250 (   634 PWs)   bands (ev):

     0.4991   0.5835   0.7316   0.9331   1.1198   4.4732   9.0811   9.9101
    13.8618  15.2423

     occupation numbers 
     1.0000   1.0000   1.0000   1.0000   1.0000   0.0596   0.0000   0.0000
     0.0000   0.0000

          k =-0.1250 0.7500-0.2500 (   646 PWs)   bands (ev):

     0.4434   0.5720   0.6570   0.9949   1.1583   6.3351   6.9861   9.2514
    13.9983  16.4258

     occupation numbers 
     1.0000   1.0000   1.0000   1.0000   1.0000   0.0000   0.0000   0.0000
     0.0000   0.0000

          k = 0.6250-0.6250 0.3750 (   637 PWs)   bands (ev):

     0.4850   0.4850   0.8235   0.9891   0.9891   4.5662   8.5618  10.1411
    10.1411  22.7035

     occupation numbers 
     1.0000   1.0000   1.0000   1.0000   1.0000   0.0182   0.0000   0.0000
     0.0000   0.0000

          k = 0.5000-0.5000 0.3750 (   648 PWs)   bands (ev):

     0.4759   0.5274   0.7670   0.9778   0.9820   6.1845   7.1461   9.0722
     9.8382  23.0819

     occupation numbers 
     1.0000   1.0000   1.0000   1.0000   1.0000   0.0000   0.0000   0.0000
     0.0000   0.0000

          k = 0.0000 0.0000 0.6250 (   639 PWs)   bands (ev):

     0.4727   0.5866   0.8966   0.8966   0.9913   4.1226  11.0122  11.0122
    11.4763  13.7108

     occupation numbers 
     1.0000   1.0000   1.0000   1.0000   1.0000   0.7659   0.0000   0.0000
     0.0000   0.0000

          k = 0.0000-0.1250 0.7500 (   643 PWs)   bands (ev):

     0.3763   0.4529   0.9204   0.9940   1.1558   5.9329   8.4554  10.2230
    11.8246  14.2151

     occupation numbers 
     1.0000   1.0000   1.0000   1.0000   1.0000   0.0000   0.0000   0.0000
     0.0000   0.0000

          k =-0.1250 0.8750-0.1250 (   643 PWs)   bands (ev):

     0.3548   0.3548   0.9503   1.1457   1.1457   7.3969   8.4417   8.4417
    12.3286  14.3487

     occupation numbers 
     1.0000   1.0000   1.0000   1.0000   1.0000   0.0000   0.0000   0.0000
     0.0000   0.0000

          k = 0.0000 0.0000 0.8750 (   650 PWs)   bands (ev):

     0.2674   0.2863   1.1351   1.1351   1.1431   7.5752   9.4139   9.4139
    10.3488  12.9787

     occupation numbers 
     1.0000   1.0000   1.0000   1.0000   1.0000   0.0000   0.0000   0.0000
     0.0000   0.0000

     the Fermi energy is     4.2583 ev

!    total energy              =     -84.10379423 Ry
     Harris-Foulkes estimate   =     -84.10379431 Ry
     estimated scf accuracy    <       0.00000011 Ry

     The total energy is the sum of the following terms:

     one-electron contribution =     -27.93335822 Ry
     hartree contribution      =      23.04474604 Ry
     xc contribution           =     -22.17502612 Ry
     ewald contribution        =     -57.03979893 Ry
     smearing contrib. (-TS)   =      -0.00035700 Ry

     convergence has been achieved in   5 iterations

     Writing output data file Ag_exc2.save

     init_run     :      4.47s CPU      5.47s WALL (       1 calls)
     electrons    :     18.45s CPU     22.85s WALL (       1 calls)

     Called by init_run:
     wfcinit      :      1.18s CPU      1.45s WALL (       1 calls)
     potinit      :      0.07s CPU      0.09s WALL (       1 calls)

     Called by electrons:
     c_bands      :     14.61s CPU     17.99s WALL (       6 calls)
     sum_band     :      2.98s CPU      3.76s WALL (       6 calls)
     v_of_rho     :      0.30s CPU      0.38s WALL (       6 calls)
     v_h          :      0.02s CPU      0.01s WALL (       6 calls)
     v_xc         :      0.28s CPU      0.37s WALL (       6 calls)
     newd         :      0.76s CPU      1.02s WALL (       6 calls)
     mix_rho      :      0.02s CPU      0.03s WALL (       6 calls)

     Called by c_bands:
     init_us_2    :      0.60s CPU      0.74s WALL (     338 calls)
     cegterg      :     13.71s CPU     16.96s WALL (     156 calls)

     Called by sum_band:
     sum_band:bec :      0.01s CPU      0.01s WALL (     156 calls)
     addusdens    :      0.65s CPU      0.83s WALL (       6 calls)

     Called by *egterg:
     h_psi        :     11.11s CPU     13.69s WALL (     606 calls)
     s_psi        :      0.66s CPU      0.73s WALL (     606 calls)
     g_psi        :      0.03s CPU      0.09s WALL (     424 calls)
     cdiaghg      :      0.62s CPU      0.77s WALL (     554 calls)
     cegterg:over :      1.03s CPU      1.24s WALL (     424 calls)
     cegterg:upda :      0.48s CPU      0.67s WALL (     424 calls)
     cegterg:last :      0.35s CPU      0.41s WALL (     156 calls)

     Called by h_psi:
     h_psi:vloc   :      9.73s CPU     12.04s WALL (     606 calls)
     h_psi:vnl    :      1.32s CPU      1.59s WALL (     606 calls)
     add_vuspsi   :      0.61s CPU      0.75s WALL (     606 calls)

     General routines
     calbec       :      0.90s CPU      1.13s WALL (     762 calls)
     fft          :      0.16s CPU      0.21s WALL (      80 calls)
     fftw         :     10.33s CPU     12.80s WALL (    9860 calls)
     davcio       :      0.00s CPU      0.00s WALL (      26 calls)

     Parallel routines
     fft_scatter  :      0.54s CPU      0.61s WALL (    9940 calls)

     PWSCF        :    25.20s CPU        31.34s WALL


   This run was terminated on:  21:17:38  18Feb2020            

=------------------------------------------------------------------------------=
   JOB DONE.
=------------------------------------------------------------------------------=
