
     Program PWSCF v.5.1 starts on 18Feb2020 at 21:18:34 

     This program is part of the open-source Quantum ESPRESSO suite
     for quantum simulation of materials; please cite
         "P. Giannozzi et al., J. Phys.:Condens. Matter 21 395502 (2009);
          URL http://www.quantum-espresso.org", 
     in publications or presentations arising from this work. More details at
     http://www.quantum-espresso.org/quote

     Parallel version (MPI), running on     1 processors
     Waiting for input...
     Reading input from standard input

     Current dimensions of program PWSCF are:
     Max number of different atomic species (ntypx) = 10
     Max number of k-points (npk) =  40000
     Max angular momentum in pseudopotentials (lmaxx) =  3

     Subspace diagonalization in iterative solution of the eigenvalue problem:
     a serial algorithm will be used


     G-vector sticks info
     --------------------
     sticks:   dense  smooth     PW     G-vecs:    dense   smooth      PW
     Sum         399     399    129                 5089     5089     959



     bravais-lattice index     =            3
     lattice parameter (alat)  =       7.7200  a.u.
     unit-cell volume          =     230.0498 (a.u.)^3
     number of atoms/cell      =            1
     number of atomic types    =            1
     number of electrons       =        11.00
     number of Kohn-Sham states=           10
     kinetic-energy cutoff     =      30.0000  Ry
     charge density cutoff     =     120.0000  Ry
     convergence threshold     =      1.0E-06
     mixing beta               =       0.7000
     number of iterations used =            8  plain     mixing
     Exchange-correlation      = PBE ( 1  4  3  4 0)

     celldm(1)=   7.720000  celldm(2)=   0.000000  celldm(3)=   0.000000
     celldm(4)=   0.000000  celldm(5)=   0.000000  celldm(6)=   0.000000

     crystal axes: (cart. coord. in units of alat)
               a(1) = (   0.500000   0.500000   0.500000 )  
               a(2) = (  -0.500000   0.500000   0.500000 )  
               a(3) = (  -0.500000  -0.500000   0.500000 )  

     reciprocal axes: (cart. coord. in units 2 pi/alat)
               b(1) = (  1.000000  0.000000  1.000000 )  
               b(2) = ( -1.000000  1.000000  0.000000 )  
               b(3) = (  0.000000 -1.000000  1.000000 )  


     PseudoPot. # 1 for Ag read from file:
     ../pseudo/Ag.pbe-n-rrkjus_psl.1.0.0.UPF
     MD5 check sum: d841cbfac2b0861aec33b46768a516bf
     Pseudo is Ultrasoft + core correction, Zval = 11.0
     Generated using "atomic" code by A. Dal Corso  v.6.2.2
     Using radial grid of 1237 points,  6 beta functions with: 
                l(1) =   0
                l(2) =   0
                l(3) =   1
                l(4) =   1
                l(5) =   2
                l(6) =   2
     Q(r) pseudized with 0 coefficients 


     atomic species   valence    mass     pseudopotential
        Ag            11.00   107.86000     Ag( 1.00)

     48 Sym. Ops., with inversion, found


                                    s                        frac. trans.

      isym =  1     identity                                     

 cryst.   s( 1) = (     1          0          0      )
                  (     0          1          0      )
                  (     0          0          1      )

 cart.    s( 1) = (  1.0000000  0.0000000  0.0000000 )
                  (  0.0000000  1.0000000  0.0000000 )
                  (  0.0000000  0.0000000  1.0000000 )


      isym =  2     180 deg rotation - cart. axis [0,0,1]        

 cryst.   s( 2) = (     0          0          1      )
                  (     1         -1          1      )
                  (     1          0          0      )

 cart.    s( 2) = ( -1.0000000  0.0000000  0.0000000 )
                  (  0.0000000 -1.0000000  0.0000000 )
                  (  0.0000000  0.0000000  1.0000000 )


      isym =  3     180 deg rotation - cart. axis [0,1,0]        

 cryst.   s( 3) = (    -1          1         -1      )
                  (     0          0         -1      )
                  (     0         -1          0      )

 cart.    s( 3) = ( -1.0000000  0.0000000  0.0000000 )
                  (  0.0000000  1.0000000  0.0000000 )
                  (  0.0000000  0.0000000 -1.0000000 )


      isym =  4     180 deg rotation - cart. axis [1,0,0]        

 cryst.   s( 4) = (     0         -1          0      )
                  (    -1          0          0      )
                  (    -1          1         -1      )

 cart.    s( 4) = (  1.0000000  0.0000000  0.0000000 )
                  (  0.0000000 -1.0000000  0.0000000 )
                  (  0.0000000  0.0000000 -1.0000000 )


      isym =  5     180 deg rotation - cart. axis [1,1,0]        

 cryst.   s( 5) = (     0          0         -1      )
                  (     0         -1          0      )
                  (    -1          0          0      )

 cart.    s( 5) = (  0.0000000  1.0000000  0.0000000 )
                  (  1.0000000  0.0000000  0.0000000 )
                  (  0.0000000  0.0000000 -1.0000000 )


      isym =  6     180 deg rotation - cart. axis [1,-1,0]       

 cryst.   s( 6) = (    -1          0          0      )
                  (    -1          1         -1      )
                  (     0          0         -1      )

 cart.    s( 6) = (  0.0000000 -1.0000000  0.0000000 )
                  ( -1.0000000  0.0000000  0.0000000 )
                  (  0.0000000  0.0000000 -1.0000000 )


      isym =  7      90 deg rotation - cart. axis [0,0,-1]       

 cryst.   s( 7) = (     1         -1          1      )
                  (     1          0          0      )
                  (     0          1          0      )

 cart.    s( 7) = (  0.0000000  1.0000000  0.0000000 )
                  ( -1.0000000  0.0000000  0.0000000 )
                  (  0.0000000  0.0000000  1.0000000 )


      isym =  8      90 deg rotation - cart. axis [0,0,1]        

 cryst.   s( 8) = (     0          1          0      )
                  (     0          0          1      )
                  (     1         -1          1      )

 cart.    s( 8) = (  0.0000000 -1.0000000  0.0000000 )
                  (  1.0000000  0.0000000  0.0000000 )
                  (  0.0000000  0.0000000  1.0000000 )


      isym =  9     180 deg rotation - cart. axis [1,0,1]        

 cryst.   s( 9) = (     1         -1          1      )
                  (     0         -1          0      )
                  (     0          0         -1      )

 cart.    s( 9) = (  0.0000000  0.0000000  1.0000000 )
                  (  0.0000000 -1.0000000  0.0000000 )
                  (  1.0000000  0.0000000  0.0000000 )


      isym = 10     180 deg rotation - cart. axis [-1,0,1]       

 cryst.   s(10) = (    -1          0          0      )
                  (     0          0          1      )
                  (     0          1          0      )

 cart.    s(10) = (  0.0000000  0.0000000 -1.0000000 )
                  (  0.0000000 -1.0000000  0.0000000 )
                  ( -1.0000000  0.0000000  0.0000000 )


      isym = 11      90 deg rotation - cart. axis [0,1,0]        

 cryst.   s(11) = (     0          0         -1      )
                  (     1          0          0      )
                  (     1         -1          1      )

 cart.    s(11) = (  0.0000000  0.0000000  1.0000000 )
                  (  0.0000000  1.0000000  0.0000000 )
                  ( -1.0000000  0.0000000  0.0000000 )


      isym = 12      90 deg rotation - cart. axis [0,-1,0]       

 cryst.   s(12) = (     0          1          0      )
                  (    -1          1         -1      )
                  (    -1          0          0      )

 cart.    s(12) = (  0.0000000  0.0000000 -1.0000000 )
                  (  0.0000000  1.0000000  0.0000000 )
                  (  1.0000000  0.0000000  0.0000000 )


      isym = 13     180 deg rotation - cart. axis [0,1,1]        

 cryst.   s(13) = (     0          1          0      )
                  (     1          0          0      )
                  (     0          0         -1      )

 cart.    s(13) = ( -1.0000000  0.0000000  0.0000000 )
                  (  0.0000000  0.0000000  1.0000000 )
                  (  0.0000000  1.0000000  0.0000000 )


      isym = 14     180 deg rotation - cart. axis [0,1,-1]       

 cryst.   s(14) = (    -1          0          0      )
                  (     0         -1          0      )
                  (     1         -1          1      )

 cart.    s(14) = ( -1.0000000  0.0000000  0.0000000 )
                  (  0.0000000  0.0000000 -1.0000000 )
                  (  0.0000000 -1.0000000  0.0000000 )


      isym = 15      90 deg rotation - cart. axis [-1,0,0]       

 cryst.   s(15) = (     0          0         -1      )
                  (    -1          1         -1      )
                  (     0          1          0      )

 cart.    s(15) = (  1.0000000  0.0000000  0.0000000 )
                  (  0.0000000  0.0000000  1.0000000 )
                  (  0.0000000 -1.0000000  0.0000000 )


      isym = 16      90 deg rotation - cart. axis [1,0,0]        

 cryst.   s(16) = (     1         -1          1      )
                  (     0          0          1      )
                  (    -1          0          0      )

 cart.    s(16) = (  1.0000000  0.0000000  0.0000000 )
                  (  0.0000000  0.0000000 -1.0000000 )
                  (  0.0000000  1.0000000  0.0000000 )


      isym = 17     120 deg rotation - cart. axis [-1,-1,-1]     

 cryst.   s(17) = (     1          0          0      )
                  (     0          0         -1      )
                  (    -1          1         -1      )

 cart.    s(17) = (  0.0000000  1.0000000  0.0000000 )
                  (  0.0000000  0.0000000  1.0000000 )
                  (  1.0000000  0.0000000  0.0000000 )


      isym = 18     120 deg rotation - cart. axis [-1,1,1]       

 cryst.   s(18) = (    -1          1         -1      )
                  (     0          1          0      )
                  (     1          0          0      )

 cart.    s(18) = (  0.0000000 -1.0000000  0.0000000 )
                  (  0.0000000  0.0000000  1.0000000 )
                  ( -1.0000000  0.0000000  0.0000000 )


      isym = 19     120 deg rotation - cart. axis [1,1,-1]       

 cryst.   s(19) = (     0         -1          0      )
                  (     1         -1          1      )
                  (     0          0          1      )

 cart.    s(19) = (  0.0000000  1.0000000  0.0000000 )
                  (  0.0000000  0.0000000 -1.0000000 )
                  ( -1.0000000  0.0000000  0.0000000 )


      isym = 20     120 deg rotation - cart. axis [1,-1,1]       

 cryst.   s(20) = (     0          0          1      )
                  (    -1          0          0      )
                  (     0         -1          0      )

 cart.    s(20) = (  0.0000000 -1.0000000  0.0000000 )
                  (  0.0000000  0.0000000 -1.0000000 )
                  (  1.0000000  0.0000000  0.0000000 )


      isym = 21     120 deg rotation - cart. axis [1,1,1]        

 cryst.   s(21) = (     1          0          0      )
                  (     1         -1          1      )
                  (     0         -1          0      )

 cart.    s(21) = (  0.0000000  0.0000000  1.0000000 )
                  (  1.0000000  0.0000000  0.0000000 )
                  (  0.0000000  1.0000000  0.0000000 )


      isym = 22     120 deg rotation - cart. axis [-1,1,-1]      

 cryst.   s(22) = (     0         -1          0      )
                  (     0          0         -1      )
                  (     1          0          0      )

 cart.    s(22) = (  0.0000000  0.0000000  1.0000000 )
                  ( -1.0000000  0.0000000  0.0000000 )
                  (  0.0000000 -1.0000000  0.0000000 )


      isym = 23     120 deg rotation - cart. axis [1,-1,-1]      

 cryst.   s(23) = (     0          0          1      )
                  (     0          1          0      )
                  (    -1          1         -1      )

 cart.    s(23) = (  0.0000000  0.0000000 -1.0000000 )
                  ( -1.0000000  0.0000000  0.0000000 )
                  (  0.0000000  1.0000000  0.0000000 )


      isym = 24     120 deg rotation - cart. axis [-1,-1,1]      

 cryst.   s(24) = (    -1          1         -1      )
                  (    -1          0          0      )
                  (     0          0          1      )

 cart.    s(24) = (  0.0000000  0.0000000 -1.0000000 )
                  (  1.0000000  0.0000000  0.0000000 )
                  (  0.0000000 -1.0000000  0.0000000 )


      isym = 25     inversion                                    

 cryst.   s(25) = (    -1          0          0      )
                  (     0         -1          0      )
                  (     0          0         -1      )

 cart.    s(25) = ( -1.0000000  0.0000000  0.0000000 )
                  (  0.0000000 -1.0000000  0.0000000 )
                  (  0.0000000  0.0000000 -1.0000000 )


      isym = 26     inv. 180 deg rotation - cart. axis [0,0,1]   

 cryst.   s(26) = (     0          0         -1      )
                  (    -1          1         -1      )
                  (    -1          0          0      )

 cart.    s(26) = (  1.0000000  0.0000000  0.0000000 )
                  (  0.0000000  1.0000000  0.0000000 )
                  (  0.0000000  0.0000000 -1.0000000 )


      isym = 27     inv. 180 deg rotation - cart. axis [0,1,0]   

 cryst.   s(27) = (     1         -1          1      )
                  (     0          0          1      )
                  (     0          1          0      )

 cart.    s(27) = (  1.0000000  0.0000000  0.0000000 )
                  (  0.0000000 -1.0000000  0.0000000 )
                  (  0.0000000  0.0000000  1.0000000 )


      isym = 28     inv. 180 deg rotation - cart. axis [1,0,0]   

 cryst.   s(28) = (     0          1          0      )
                  (     1          0          0      )
                  (     1         -1          1      )

 cart.    s(28) = ( -1.0000000  0.0000000  0.0000000 )
                  (  0.0000000  1.0000000  0.0000000 )
                  (  0.0000000  0.0000000  1.0000000 )


      isym = 29     inv. 180 deg rotation - cart. axis [1,1,0]   

 cryst.   s(29) = (     0          0          1      )
                  (     0          1          0      )
                  (     1          0          0      )

 cart.    s(29) = (  0.0000000 -1.0000000  0.0000000 )
                  ( -1.0000000  0.0000000  0.0000000 )
                  (  0.0000000  0.0000000  1.0000000 )


      isym = 30     inv. 180 deg rotation - cart. axis [1,-1,0]  

 cryst.   s(30) = (     1          0          0      )
                  (     1         -1          1      )
                  (     0          0          1      )

 cart.    s(30) = (  0.0000000  1.0000000  0.0000000 )
                  (  1.0000000  0.0000000  0.0000000 )
                  (  0.0000000  0.0000000  1.0000000 )


      isym = 31     inv.  90 deg rotation - cart. axis [0,0,-1]  

 cryst.   s(31) = (    -1          1         -1      )
                  (    -1          0          0      )
                  (     0         -1          0      )

 cart.    s(31) = (  0.0000000 -1.0000000  0.0000000 )
                  (  1.0000000  0.0000000  0.0000000 )
                  (  0.0000000  0.0000000 -1.0000000 )


      isym = 32     inv.  90 deg rotation - cart. axis [0,0,1]   

 cryst.   s(32) = (     0         -1          0      )
                  (     0          0         -1      )
                  (    -1          1         -1      )

 cart.    s(32) = (  0.0000000  1.0000000  0.0000000 )
                  ( -1.0000000  0.0000000  0.0000000 )
                  (  0.0000000  0.0000000 -1.0000000 )


      isym = 33     inv. 180 deg rotation - cart. axis [1,0,1]   

 cryst.   s(33) = (    -1          1         -1      )
                  (     0          1          0      )
                  (     0          0          1      )

 cart.    s(33) = (  0.0000000  0.0000000 -1.0000000 )
                  (  0.0000000  1.0000000  0.0000000 )
                  ( -1.0000000  0.0000000  0.0000000 )


      isym = 34     inv. 180 deg rotation - cart. axis [-1,0,1]  

 cryst.   s(34) = (     1          0          0      )
                  (     0          0         -1      )
                  (     0         -1          0      )

 cart.    s(34) = (  0.0000000  0.0000000  1.0000000 )
                  (  0.0000000  1.0000000  0.0000000 )
                  (  1.0000000  0.0000000  0.0000000 )


      isym = 35     inv.  90 deg rotation - cart. axis [0,1,0]   

 cryst.   s(35) = (     0          0          1      )
                  (    -1          0          0      )
                  (    -1          1         -1      )

 cart.    s(35) = (  0.0000000  0.0000000 -1.0000000 )
                  (  0.0000000 -1.0000000  0.0000000 )
                  (  1.0000000  0.0000000  0.0000000 )


      isym = 36     inv.  90 deg rotation - cart. axis [0,-1,0]  

 cryst.   s(36) = (     0         -1          0      )
                  (     1         -1          1      )
                  (     1          0          0      )

 cart.    s(36) = (  0.0000000  0.0000000  1.0000000 )
                  (  0.0000000 -1.0000000  0.0000000 )
                  ( -1.0000000  0.0000000  0.0000000 )


      isym = 37     inv. 180 deg rotation - cart. axis [0,1,1]   

 cryst.   s(37) = (     0         -1          0      )
                  (    -1          0          0      )
                  (     0          0          1      )

 cart.    s(37) = (  1.0000000  0.0000000  0.0000000 )
                  (  0.0000000  0.0000000 -1.0000000 )
                  (  0.0000000 -1.0000000  0.0000000 )


      isym = 38     inv. 180 deg rotation - cart. axis [0,1,-1]  

 cryst.   s(38) = (     1          0          0      )
                  (     0          1          0      )
                  (    -1          1         -1      )

 cart.    s(38) = (  1.0000000  0.0000000  0.0000000 )
                  (  0.0000000  0.0000000  1.0000000 )
                  (  0.0000000  1.0000000  0.0000000 )


      isym = 39     inv.  90 deg rotation - cart. axis [-1,0,0]  

 cryst.   s(39) = (     0          0          1      )
                  (     1         -1          1      )
                  (     0         -1          0      )

 cart.    s(39) = ( -1.0000000  0.0000000  0.0000000 )
                  (  0.0000000  0.0000000 -1.0000000 )
                  (  0.0000000  1.0000000  0.0000000 )


      isym = 40     inv.  90 deg rotation - cart. axis [1,0,0]   

 cryst.   s(40) = (    -1          1         -1      )
                  (     0          0         -1      )
                  (     1          0          0      )

 cart.    s(40) = ( -1.0000000  0.0000000  0.0000000 )
                  (  0.0000000  0.0000000  1.0000000 )
                  (  0.0000000 -1.0000000  0.0000000 )


      isym = 41     inv. 120 deg rotation - cart. axis [-1,-1,-1]

 cryst.   s(41) = (    -1          0          0      )
                  (     0          0          1      )
                  (     1         -1          1      )

 cart.    s(41) = (  0.0000000 -1.0000000  0.0000000 )
                  (  0.0000000  0.0000000 -1.0000000 )
                  ( -1.0000000  0.0000000  0.0000000 )


      isym = 42     inv. 120 deg rotation - cart. axis [-1,1,1]  

 cryst.   s(42) = (     1         -1          1      )
                  (     0         -1          0      )
                  (    -1          0          0      )

 cart.    s(42) = (  0.0000000  1.0000000  0.0000000 )
                  (  0.0000000  0.0000000 -1.0000000 )
                  (  1.0000000  0.0000000  0.0000000 )


      isym = 43     inv. 120 deg rotation - cart. axis [1,1,-1]  

 cryst.   s(43) = (     0          1          0      )
                  (    -1          1         -1      )
                  (     0          0         -1      )

 cart.    s(43) = (  0.0000000 -1.0000000  0.0000000 )
                  (  0.0000000  0.0000000  1.0000000 )
                  (  1.0000000  0.0000000  0.0000000 )


      isym = 44     inv. 120 deg rotation - cart. axis [1,-1,1]  

 cryst.   s(44) = (     0          0         -1      )
                  (     1          0          0      )
                  (     0          1          0      )

 cart.    s(44) = (  0.0000000  1.0000000  0.0000000 )
                  (  0.0000000  0.0000000  1.0000000 )
                  ( -1.0000000  0.0000000  0.0000000 )


      isym = 45     inv. 120 deg rotation - cart. axis [1,1,1]   

 cryst.   s(45) = (    -1          0          0      )
                  (    -1          1         -1      )
                  (     0          1          0      )

 cart.    s(45) = (  0.0000000  0.0000000 -1.0000000 )
                  ( -1.0000000  0.0000000  0.0000000 )
                  (  0.0000000 -1.0000000  0.0000000 )


      isym = 46     inv. 120 deg rotation - cart. axis [-1,1,-1] 

 cryst.   s(46) = (     0          1          0      )
                  (     0          0          1      )
                  (    -1          0          0      )

 cart.    s(46) = (  0.0000000  0.0000000 -1.0000000 )
                  (  1.0000000  0.0000000  0.0000000 )
                  (  0.0000000  1.0000000  0.0000000 )


      isym = 47     inv. 120 deg rotation - cart. axis [1,-1,-1] 

 cryst.   s(47) = (     0          0         -1      )
                  (     0         -1          0      )
                  (     1         -1          1      )

 cart.    s(47) = (  0.0000000  0.0000000  1.0000000 )
                  (  1.0000000  0.0000000  0.0000000 )
                  (  0.0000000 -1.0000000  0.0000000 )


      isym = 48     inv. 120 deg rotation - cart. axis [-1,-1,1] 

 cryst.   s(48) = (     1         -1          1      )
                  (     1          0          0      )
                  (     0          0         -1      )

 cart.    s(48) = (  0.0000000  0.0000000  1.0000000 )
                  ( -1.0000000  0.0000000  0.0000000 )
                  (  0.0000000  1.0000000  0.0000000 )


     point group O_h (m-3m) 
     there are 10 classes
     the character table:

       E     8C3   6C2'  6C4   3C2   i     6S4   8S6   3s_h  6s_d 
A_1g   1.00  1.00  1.00  1.00  1.00  1.00  1.00  1.00  1.00  1.00
A_2g   1.00  1.00 -1.00 -1.00  1.00  1.00 -1.00  1.00  1.00 -1.00
E_g    2.00 -1.00  0.00  0.00  2.00  2.00  0.00 -1.00  2.00  0.00
T_1g   3.00  0.00 -1.00  1.00 -1.00  3.00  1.00  0.00 -1.00 -1.00
T_2g   3.00  0.00  1.00 -1.00 -1.00  3.00 -1.00  0.00 -1.00  1.00
A_1u   1.00  1.00  1.00  1.00  1.00 -1.00 -1.00 -1.00 -1.00 -1.00
A_2u   1.00  1.00 -1.00 -1.00  1.00 -1.00  1.00 -1.00 -1.00  1.00
E_u    2.00 -1.00  0.00  0.00  2.00 -2.00  0.00  1.00 -2.00  0.00
T_1u   3.00  0.00 -1.00  1.00 -1.00 -3.00 -1.00  0.00  1.00  1.00
T_2u   3.00  0.00  1.00 -1.00 -1.00 -3.00  1.00  0.00  1.00 -1.00

     the symmetry operations in each class:
     E        1
     3C2      2    4    3
     6C2'     5    6   14   13   10    9
     6C4      7    8   15   16   12   11
     8C3     17   19   20   18   24   21   22   23
     i       25
     3s_h    26   28   27
     6s_d    29   30   38   37   34   33
     6S4     31   32   39   40   36   35
     8S6     41   43   44   42   48   45   46   47

   Cartesian axes

     site n.     atom                  positions (alat units)
         1           Ag  tau(   1) = (   0.0000000   0.0000000   0.0000000  )

   Crystallographic axes

     site n.     atom                  positions (cryst. coord.)
         1           Ag  tau(   1) = (  0.0000000  0.0000000  0.0000000  )

     number of k points=   140  Marzari-Vanderbilt smearing, width (Ry)=  0.0200
                       cart. coord. in units 2pi/alat
        k(    1) = (   0.0000000   0.0000000   0.0625000), wk =   0.0029297
        k(    2) = (   0.0000000  -0.0625000   0.1250000), wk =   0.0117188
        k(    3) = (   0.0000000  -0.1250000   0.1875000), wk =   0.0117188
        k(    4) = (   0.0000000  -0.1875000   0.2500000), wk =   0.0117188
        k(    5) = (   0.0000000  -0.2500000   0.3125000), wk =   0.0117188
        k(    6) = (   0.0000000  -0.3125000   0.3750000), wk =   0.0117188
        k(    7) = (   0.0000000  -0.3750000   0.4375000), wk =   0.0117188
        k(    8) = (   0.0000000  -0.4375000   0.5000000), wk =   0.0117188
        k(    9) = (  -0.0625000   0.0625000   0.0625000), wk =   0.0039062
        k(   10) = (  -0.0625000  -0.0625000   0.1875000), wk =   0.0117188
        k(   11) = (  -0.0625000  -0.1250000   0.2500000), wk =   0.0234375
        k(   12) = (  -0.0625000  -0.1875000   0.3125000), wk =   0.0234375
        k(   13) = (  -0.0625000  -0.2500000   0.3750000), wk =   0.0234375
        k(   14) = (  -0.0625000  -0.3125000   0.4375000), wk =   0.0234375
        k(   15) = (  -0.0625000  -0.3750000   0.5000000), wk =   0.0234375
        k(   16) = (  -0.0625000   0.5625000  -0.4375000), wk =   0.0117188
        k(   17) = (  -0.1250000   0.1250000   0.0625000), wk =   0.0117188
        k(   18) = (  -0.1250000  -0.1250000   0.3125000), wk =   0.0117188
        k(   19) = (  -0.1250000  -0.1875000   0.3750000), wk =   0.0234375
        k(   20) = (  -0.1250000  -0.2500000   0.4375000), wk =   0.0234375
        k(   21) = (  -0.1250000  -0.3125000   0.5000000), wk =   0.0234375
        k(   22) = (  -0.1250000   0.6250000  -0.4375000), wk =   0.0234375
        k(   23) = (  -0.1875000   0.1875000   0.0625000), wk =   0.0117188
        k(   24) = (  -0.1875000   0.1250000   0.1250000), wk =   0.0117188
        k(   25) = (  -0.1875000  -0.1875000   0.4375000), wk =   0.0117188
        k(   26) = (  -0.1875000  -0.2500000   0.5000000), wk =   0.0234375
        k(   27) = (  -0.1875000   0.6875000  -0.4375000), wk =   0.0234375
        k(   28) = (  -0.1875000   0.6250000  -0.3750000), wk =   0.0117188
        k(   29) = (  -0.2500000   0.2500000   0.0625000), wk =   0.0117188
        k(   30) = (  -0.2500000   0.1875000   0.1250000), wk =   0.0234375
        k(   31) = (  -0.2500000   0.7500000  -0.4375000), wk =   0.0117188
        k(   32) = (  -0.2500000   0.6875000  -0.3750000), wk =   0.0234375
        k(   33) = (  -0.3125000   0.3125000   0.0625000), wk =   0.0117188
        k(   34) = (  -0.3125000   0.2500000   0.1250000), wk =   0.0234375
        k(   35) = (  -0.3125000   0.1875000   0.1875000), wk =   0.0117188
        k(   36) = (  -0.3125000   0.6875000  -0.3125000), wk =   0.0039062
        k(   37) = (  -0.3750000   0.3750000   0.0625000), wk =   0.0117188
        k(   38) = (  -0.3750000   0.3125000   0.1250000), wk =   0.0234375
        k(   39) = (  -0.3750000   0.2500000   0.1875000), wk =   0.0234375
        k(   40) = (  -0.4375000   0.4375000   0.0625000), wk =   0.0117188
        k(   41) = (  -0.4375000   0.3750000   0.1250000), wk =   0.0234375
        k(   42) = (  -0.4375000   0.3125000   0.1875000), wk =   0.0234375
        k(   43) = (  -0.4375000   0.2500000   0.2500000), wk =   0.0117188
        k(   44) = (   0.5000000  -0.5000000   0.0625000), wk =   0.0058594
        k(   45) = (   0.5000000  -0.5625000   0.1250000), wk =   0.0234375
        k(   46) = (   0.5000000  -0.6250000   0.1875000), wk =   0.0234375
        k(   47) = (   0.5000000  -0.6875000   0.2500000), wk =   0.0234375
        k(   48) = (   0.4375000  -0.5625000   0.1875000), wk =   0.0117188
        k(   49) = (   0.4375000  -0.6250000   0.2500000), wk =   0.0234375
        k(   50) = (   0.4375000  -0.6875000   0.3125000), wk =   0.0117188
        k(   51) = (   0.3750000  -0.6250000   0.3125000), wk =   0.0117188
        k(   52) = (   0.0000000   0.0000000   0.1875000), wk =   0.0029297
        k(   53) = (   0.0000000  -0.0625000   0.2500000), wk =   0.0117188
        k(   54) = (   0.0000000  -0.1250000   0.3125000), wk =   0.0117188
        k(   55) = (   0.0000000  -0.1875000   0.3750000), wk =   0.0117188
        k(   56) = (   0.0000000  -0.2500000   0.4375000), wk =   0.0117188
        k(   57) = (   0.0000000  -0.3125000   0.5000000), wk =   0.0117188
        k(   58) = (   0.0000000  -0.3750000   0.5625000), wk =   0.0117188
        k(   59) = (  -0.0625000  -0.0625000   0.3125000), wk =   0.0117188
        k(   60) = (  -0.0625000  -0.1250000   0.3750000), wk =   0.0234375
        k(   61) = (  -0.0625000  -0.1875000   0.4375000), wk =   0.0234375
        k(   62) = (  -0.0625000  -0.2500000   0.5000000), wk =   0.0234375
        k(   63) = (  -0.0625000  -0.3125000   0.5625000), wk =   0.0234375
        k(   64) = (  -0.0625000   0.6250000  -0.3750000), wk =   0.0117188
        k(   65) = (  -0.1250000  -0.1250000   0.4375000), wk =   0.0117188
        k(   66) = (  -0.1250000  -0.1875000   0.5000000), wk =   0.0234375
        k(   67) = (  -0.1250000  -0.2500000   0.5625000), wk =   0.0234375
        k(   68) = (  -0.1250000   0.6875000  -0.3750000), wk =   0.0234375
        k(   69) = (  -0.1875000   0.1875000   0.1875000), wk =   0.0039062
        k(   70) = (  -0.1875000  -0.1875000   0.5625000), wk =   0.0117188
        k(   71) = (  -0.1875000   0.7500000  -0.3750000), wk =   0.0234375
        k(   72) = (  -0.1875000   0.6875000  -0.3125000), wk =   0.0117188
        k(   73) = (  -0.2500000   0.2500000   0.1875000), wk =   0.0117188
        k(   74) = (  -0.2500000   0.7500000  -0.3125000), wk =   0.0117188
        k(   75) = (  -0.3125000   0.3125000   0.1875000), wk =   0.0117188
        k(   76) = (  -0.3125000   0.2500000   0.2500000), wk =   0.0117188
        k(   77) = (  -0.3750000   0.3750000   0.1875000), wk =   0.0117188
        k(   78) = (  -0.3750000   0.3125000   0.2500000), wk =   0.0234375
        k(   79) = (   0.5625000  -0.5625000   0.1875000), wk =   0.0117188
        k(   80) = (   0.5625000  -0.6250000   0.2500000), wk =   0.0234375
        k(   81) = (   0.5625000  -0.6875000   0.3125000), wk =   0.0117188
        k(   82) = (   0.5000000  -0.5000000   0.1875000), wk =   0.0058594
        k(   83) = (   0.5000000  -0.5625000   0.2500000), wk =   0.0234375
        k(   84) = (   0.5000000  -0.6250000   0.3125000), wk =   0.0234375
        k(   85) = (   0.4375000  -0.5625000   0.3125000), wk =   0.0117188
        k(   86) = (   0.4375000  -0.6250000   0.3750000), wk =   0.0117188
        k(   87) = (   0.0000000   0.0000000   0.3125000), wk =   0.0029297
        k(   88) = (   0.0000000  -0.0625000   0.3750000), wk =   0.0117188
        k(   89) = (   0.0000000  -0.1250000   0.4375000), wk =   0.0117188
        k(   90) = (   0.0000000  -0.1875000   0.5000000), wk =   0.0117188
        k(   91) = (   0.0000000  -0.2500000   0.5625000), wk =   0.0117188
        k(   92) = (   0.0000000  -0.3125000   0.6250000), wk =   0.0117188
        k(   93) = (  -0.0625000  -0.0625000   0.4375000), wk =   0.0117188
        k(   94) = (  -0.0625000  -0.1250000   0.5000000), wk =   0.0234375
        k(   95) = (  -0.0625000  -0.1875000   0.5625000), wk =   0.0234375
        k(   96) = (  -0.0625000  -0.2500000   0.6250000), wk =   0.0234375
        k(   97) = (  -0.0625000   0.6875000  -0.3125000), wk =   0.0117188
        k(   98) = (  -0.1250000  -0.1250000   0.5625000), wk =   0.0117188
        k(   99) = (  -0.1250000  -0.1875000   0.6250000), wk =   0.0234375
        k(  100) = (  -0.1250000   0.7500000  -0.3125000), wk =   0.0234375
        k(  101) = (  -0.1875000   0.8125000  -0.3125000), wk =   0.0117188
        k(  102) = (  -0.1875000   0.7500000  -0.2500000), wk =   0.0117188
        k(  103) = (  -0.3125000   0.3125000   0.3125000), wk =   0.0039062
        k(  104) = (   0.6250000  -0.6250000   0.3125000), wk =   0.0117188
        k(  105) = (   0.5625000  -0.5625000   0.3125000), wk =   0.0117188
        k(  106) = (   0.5625000  -0.6250000   0.3750000), wk =   0.0117188
        k(  107) = (   0.5000000  -0.5000000   0.3125000), wk =   0.0058594
        k(  108) = (   0.5000000  -0.5625000   0.3750000), wk =   0.0234375
        k(  109) = (   0.4375000  -0.5625000   0.4375000), wk =   0.0039062
        k(  110) = (   0.0000000   0.0000000   0.4375000), wk =   0.0029297
        k(  111) = (   0.0000000  -0.0625000   0.5000000), wk =   0.0117188
        k(  112) = (   0.0000000  -0.1250000   0.5625000), wk =   0.0117188
        k(  113) = (   0.0000000  -0.1875000   0.6250000), wk =   0.0117188
        k(  114) = (   0.0000000  -0.2500000   0.6875000), wk =   0.0117188
        k(  115) = (  -0.0625000  -0.0625000   0.5625000), wk =   0.0117188
        k(  116) = (  -0.0625000  -0.1250000   0.6250000), wk =   0.0234375
        k(  117) = (  -0.0625000  -0.1875000   0.6875000), wk =   0.0234375
        k(  118) = (  -0.0625000   0.7500000  -0.2500000), wk =   0.0117188
        k(  119) = (  -0.1250000  -0.1250000   0.6875000), wk =   0.0117188
        k(  120) = (  -0.1250000   0.8125000  -0.2500000), wk =   0.0234375
        k(  121) = (  -0.1875000   0.8125000  -0.1875000), wk =   0.0039062
        k(  122) = (   0.5625000  -0.5625000   0.4375000), wk =   0.0039062
        k(  123) = (   0.5000000  -0.5000000   0.4375000), wk =   0.0058594
        k(  124) = (   0.0000000   0.0000000   0.5625000), wk =   0.0029297
        k(  125) = (   0.0000000  -0.0625000   0.6250000), wk =   0.0117188
        k(  126) = (   0.0000000  -0.1250000   0.6875000), wk =   0.0117188
        k(  127) = (   0.0000000  -0.1875000   0.7500000), wk =   0.0117188
        k(  128) = (  -0.0625000  -0.0625000   0.6875000), wk =   0.0117188
        k(  129) = (  -0.0625000  -0.1250000   0.7500000), wk =   0.0234375
        k(  130) = (  -0.0625000   0.8125000  -0.1875000), wk =   0.0117188
        k(  131) = (  -0.1250000   0.8750000  -0.1875000), wk =   0.0117188
        k(  132) = (   0.0000000   0.0000000   0.6875000), wk =   0.0029297
        k(  133) = (   0.0000000  -0.0625000   0.7500000), wk =   0.0117188
        k(  134) = (   0.0000000  -0.1250000   0.8125000), wk =   0.0117188
        k(  135) = (  -0.0625000  -0.0625000   0.8125000), wk =   0.0117188
        k(  136) = (  -0.0625000   0.8750000  -0.1250000), wk =   0.0117188
        k(  137) = (   0.0000000   0.0000000   0.8125000), wk =   0.0029297
        k(  138) = (   0.0000000  -0.0625000   0.8750000), wk =   0.0117188
        k(  139) = (  -0.0625000   0.9375000  -0.0625000), wk =   0.0039062
        k(  140) = (   0.0000000   0.0000000   0.9375000), wk =   0.0029297

                       cryst. coord.
        k(    1) = (   0.0312500   0.0312500   0.0312500), wk =   0.0029297
        k(    2) = (   0.0312500   0.0312500   0.0937500), wk =   0.0117188
        k(    3) = (   0.0312500   0.0312500   0.1562500), wk =   0.0117188
        k(    4) = (   0.0312500   0.0312500   0.2187500), wk =   0.0117188
        k(    5) = (   0.0312500   0.0312500   0.2812500), wk =   0.0117188
        k(    6) = (   0.0312500   0.0312500   0.3437500), wk =   0.0117188
        k(    7) = (   0.0312500   0.0312500   0.4062500), wk =   0.0117188
        k(    8) = (   0.0312500   0.0312500   0.4687500), wk =   0.0117188
        k(    9) = (   0.0312500   0.0937500   0.0312500), wk =   0.0039062
        k(   10) = (   0.0312500   0.0937500   0.1562500), wk =   0.0117188
        k(   11) = (   0.0312500   0.0937500   0.2187500), wk =   0.0234375
        k(   12) = (   0.0312500   0.0937500   0.2812500), wk =   0.0234375
        k(   13) = (   0.0312500   0.0937500   0.3437500), wk =   0.0234375
        k(   14) = (   0.0312500   0.0937500   0.4062500), wk =   0.0234375
        k(   15) = (   0.0312500   0.0937500   0.4687500), wk =   0.0234375
        k(   16) = (   0.0312500   0.0937500  -0.4687500), wk =   0.0117188
        k(   17) = (   0.0312500   0.1562500   0.0312500), wk =   0.0117188
        k(   18) = (   0.0312500   0.1562500   0.2812500), wk =   0.0117188
        k(   19) = (   0.0312500   0.1562500   0.3437500), wk =   0.0234375
        k(   20) = (   0.0312500   0.1562500   0.4062500), wk =   0.0234375
        k(   21) = (   0.0312500   0.1562500   0.4687500), wk =   0.0234375
        k(   22) = (   0.0312500   0.1562500  -0.4687500), wk =   0.0234375
        k(   23) = (   0.0312500   0.2187500   0.0312500), wk =   0.0117188
        k(   24) = (   0.0312500   0.2187500   0.0937500), wk =   0.0117188
        k(   25) = (   0.0312500   0.2187500   0.4062500), wk =   0.0117188
        k(   26) = (   0.0312500   0.2187500   0.4687500), wk =   0.0234375
        k(   27) = (   0.0312500   0.2187500  -0.4687500), wk =   0.0234375
        k(   28) = (   0.0312500   0.2187500  -0.4062500), wk =   0.0117188
        k(   29) = (   0.0312500   0.2812500   0.0312500), wk =   0.0117188
        k(   30) = (   0.0312500   0.2812500   0.0937500), wk =   0.0234375
        k(   31) = (   0.0312500   0.2812500  -0.4687500), wk =   0.0117188
        k(   32) = (   0.0312500   0.2812500  -0.4062500), wk =   0.0234375
        k(   33) = (   0.0312500   0.3437500   0.0312500), wk =   0.0117188
        k(   34) = (   0.0312500   0.3437500   0.0937500), wk =   0.0234375
        k(   35) = (   0.0312500   0.3437500   0.1562500), wk =   0.0117188
        k(   36) = (   0.0312500   0.3437500  -0.3437500), wk =   0.0039062
        k(   37) = (   0.0312500   0.4062500   0.0312500), wk =   0.0117188
        k(   38) = (   0.0312500   0.4062500   0.0937500), wk =   0.0234375
        k(   39) = (   0.0312500   0.4062500   0.1562500), wk =   0.0234375
        k(   40) = (   0.0312500   0.4687500   0.0312500), wk =   0.0117188
        k(   41) = (   0.0312500   0.4687500   0.0937500), wk =   0.0234375
        k(   42) = (   0.0312500   0.4687500   0.1562500), wk =   0.0234375
        k(   43) = (   0.0312500   0.4687500   0.2187500), wk =   0.0117188
        k(   44) = (   0.0312500  -0.4687500   0.0312500), wk =   0.0058594
        k(   45) = (   0.0312500  -0.4687500   0.0937500), wk =   0.0234375
        k(   46) = (   0.0312500  -0.4687500   0.1562500), wk =   0.0234375
        k(   47) = (   0.0312500  -0.4687500   0.2187500), wk =   0.0234375
        k(   48) = (   0.0312500  -0.4062500   0.1562500), wk =   0.0117188
        k(   49) = (   0.0312500  -0.4062500   0.2187500), wk =   0.0234375
        k(   50) = (   0.0312500  -0.4062500   0.2812500), wk =   0.0117188
        k(   51) = (   0.0312500  -0.3437500   0.2812500), wk =   0.0117188
        k(   52) = (   0.0937500   0.0937500   0.0937500), wk =   0.0029297
        k(   53) = (   0.0937500   0.0937500   0.1562500), wk =   0.0117188
        k(   54) = (   0.0937500   0.0937500   0.2187500), wk =   0.0117188
        k(   55) = (   0.0937500   0.0937500   0.2812500), wk =   0.0117188
        k(   56) = (   0.0937500   0.0937500   0.3437500), wk =   0.0117188
        k(   57) = (   0.0937500   0.0937500   0.4062500), wk =   0.0117188
        k(   58) = (   0.0937500   0.0937500   0.4687500), wk =   0.0117188
        k(   59) = (   0.0937500   0.1562500   0.2187500), wk =   0.0117188
        k(   60) = (   0.0937500   0.1562500   0.2812500), wk =   0.0234375
        k(   61) = (   0.0937500   0.1562500   0.3437500), wk =   0.0234375
        k(   62) = (   0.0937500   0.1562500   0.4062500), wk =   0.0234375
        k(   63) = (   0.0937500   0.1562500   0.4687500), wk =   0.0234375
        k(   64) = (   0.0937500   0.1562500  -0.4687500), wk =   0.0117188
        k(   65) = (   0.0937500   0.2187500   0.3437500), wk =   0.0117188
        k(   66) = (   0.0937500   0.2187500   0.4062500), wk =   0.0234375
        k(   67) = (   0.0937500   0.2187500   0.4687500), wk =   0.0234375
        k(   68) = (   0.0937500   0.2187500  -0.4687500), wk =   0.0234375
        k(   69) = (   0.0937500   0.2812500   0.0937500), wk =   0.0039062
        k(   70) = (   0.0937500   0.2812500   0.4687500), wk =   0.0117188
        k(   71) = (   0.0937500   0.2812500  -0.4687500), wk =   0.0234375
        k(   72) = (   0.0937500   0.2812500  -0.4062500), wk =   0.0117188
        k(   73) = (   0.0937500   0.3437500   0.0937500), wk =   0.0117188
        k(   74) = (   0.0937500   0.3437500  -0.4062500), wk =   0.0117188
        k(   75) = (   0.0937500   0.4062500   0.0937500), wk =   0.0117188
        k(   76) = (   0.0937500   0.4062500   0.1562500), wk =   0.0117188
        k(   77) = (   0.0937500   0.4687500   0.0937500), wk =   0.0117188
        k(   78) = (   0.0937500   0.4687500   0.1562500), wk =   0.0234375
        k(   79) = (   0.0937500  -0.4687500   0.0937500), wk =   0.0117188
        k(   80) = (   0.0937500  -0.4687500   0.1562500), wk =   0.0234375
        k(   81) = (   0.0937500  -0.4687500   0.2187500), wk =   0.0117188
        k(   82) = (   0.0937500  -0.4062500   0.0937500), wk =   0.0058594
        k(   83) = (   0.0937500  -0.4062500   0.1562500), wk =   0.0234375
        k(   84) = (   0.0937500  -0.4062500   0.2187500), wk =   0.0234375
        k(   85) = (   0.0937500  -0.3437500   0.2187500), wk =   0.0117188
        k(   86) = (   0.0937500  -0.3437500   0.2812500), wk =   0.0117188
        k(   87) = (   0.1562500   0.1562500   0.1562500), wk =   0.0029297
        k(   88) = (   0.1562500   0.1562500   0.2187500), wk =   0.0117188
        k(   89) = (   0.1562500   0.1562500   0.2812500), wk =   0.0117188
        k(   90) = (   0.1562500   0.1562500   0.3437500), wk =   0.0117188
        k(   91) = (   0.1562500   0.1562500   0.4062500), wk =   0.0117188
        k(   92) = (   0.1562500   0.1562500   0.4687500), wk =   0.0117188
        k(   93) = (   0.1562500   0.2187500   0.2812500), wk =   0.0117188
        k(   94) = (   0.1562500   0.2187500   0.3437500), wk =   0.0234375
        k(   95) = (   0.1562500   0.2187500   0.4062500), wk =   0.0234375
        k(   96) = (   0.1562500   0.2187500   0.4687500), wk =   0.0234375
        k(   97) = (   0.1562500   0.2187500  -0.4687500), wk =   0.0117188
        k(   98) = (   0.1562500   0.2812500   0.4062500), wk =   0.0117188
        k(   99) = (   0.1562500   0.2812500   0.4687500), wk =   0.0234375
        k(  100) = (   0.1562500   0.2812500  -0.4687500), wk =   0.0234375
        k(  101) = (   0.1562500   0.3437500  -0.4687500), wk =   0.0117188
        k(  102) = (   0.1562500   0.3437500  -0.4062500), wk =   0.0117188
        k(  103) = (   0.1562500   0.4687500   0.1562500), wk =   0.0039062
        k(  104) = (   0.1562500  -0.4687500   0.1562500), wk =   0.0117188
        k(  105) = (   0.1562500  -0.4062500   0.1562500), wk =   0.0117188
        k(  106) = (   0.1562500  -0.4062500   0.2187500), wk =   0.0117188
        k(  107) = (   0.1562500  -0.3437500   0.1562500), wk =   0.0058594
        k(  108) = (   0.1562500  -0.3437500   0.2187500), wk =   0.0234375
        k(  109) = (   0.1562500  -0.2812500   0.2812500), wk =   0.0039062
        k(  110) = (   0.2187500   0.2187500   0.2187500), wk =   0.0029297
        k(  111) = (   0.2187500   0.2187500   0.2812500), wk =   0.0117188
        k(  112) = (   0.2187500   0.2187500   0.3437500), wk =   0.0117188
        k(  113) = (   0.2187500   0.2187500   0.4062500), wk =   0.0117188
        k(  114) = (   0.2187500   0.2187500   0.4687500), wk =   0.0117188
        k(  115) = (   0.2187500   0.2812500   0.3437500), wk =   0.0117188
        k(  116) = (   0.2187500   0.2812500   0.4062500), wk =   0.0234375
        k(  117) = (   0.2187500   0.2812500   0.4687500), wk =   0.0234375
        k(  118) = (   0.2187500   0.2812500  -0.4687500), wk =   0.0117188
        k(  119) = (   0.2187500   0.3437500   0.4687500), wk =   0.0117188
        k(  120) = (   0.2187500   0.3437500  -0.4687500), wk =   0.0234375
        k(  121) = (   0.2187500   0.4062500  -0.4062500), wk =   0.0039062
        k(  122) = (   0.2187500  -0.3437500   0.2187500), wk =   0.0039062
        k(  123) = (   0.2187500  -0.2812500   0.2187500), wk =   0.0058594
        k(  124) = (   0.2812500   0.2812500   0.2812500), wk =   0.0029297
        k(  125) = (   0.2812500   0.2812500   0.3437500), wk =   0.0117188
        k(  126) = (   0.2812500   0.2812500   0.4062500), wk =   0.0117188
        k(  127) = (   0.2812500   0.2812500   0.4687500), wk =   0.0117188
        k(  128) = (   0.2812500   0.3437500   0.4062500), wk =   0.0117188
        k(  129) = (   0.2812500   0.3437500   0.4687500), wk =   0.0234375
        k(  130) = (   0.2812500   0.3437500  -0.4687500), wk =   0.0117188
        k(  131) = (   0.2812500   0.4062500  -0.4687500), wk =   0.0117188
        k(  132) = (   0.3437500   0.3437500   0.3437500), wk =   0.0029297
        k(  133) = (   0.3437500   0.3437500   0.4062500), wk =   0.0117188
        k(  134) = (   0.3437500   0.3437500   0.4687500), wk =   0.0117188
        k(  135) = (   0.3437500   0.4062500   0.4687500), wk =   0.0117188
        k(  136) = (   0.3437500   0.4062500  -0.4687500), wk =   0.0117188
        k(  137) = (   0.4062500   0.4062500   0.4062500), wk =   0.0029297
        k(  138) = (   0.4062500   0.4062500   0.4687500), wk =   0.0117188
        k(  139) = (   0.4062500   0.4687500  -0.4687500), wk =   0.0039062
        k(  140) = (   0.4687500   0.4687500   0.4687500), wk =   0.0029297

     Dense  grid:     5089 G-vectors     FFT dimensions: (  24,  24,  24)

     Largest allocated arrays     est. size (Mb)     dimensions
        Kohn-Sham Wavefunctions         0.10 Mb     (     658,   10)
        NL pseudopotentials             0.18 Mb     (     658,   18)
        Each V/rho on FFT grid          0.21 Mb     (   13824)
        Each G-vector array             0.04 Mb     (    5089)
        G-vector shells                 0.00 Mb     (      85)
     Largest temporary arrays     est. size (Mb)     dimensions
        Auxiliary wavefunctions         0.40 Mb     (     658,   40)
        Each subspace H/S matrix        0.02 Mb     (      40,   40)
        Each <psi_i|beta_j> matrix      0.00 Mb     (      18,   10)
        Arrays for rho mixing           1.69 Mb     (   13824,    8)

     Initial potential from superposition of free atoms

     starting charge   10.99960, renormalised to   11.00000
     Starting wfc are    9 randomized atomic wfcs +    1 random wfc

     total cpu time spent up to now is        8.7 secs

     per-process dynamical memory:    23.2 Mb

     Self-consistent Calculation

     iteration #  1     ecut=    30.00 Ry     beta=0.70
     Davidson diagonalization with overlap
     ethr =  1.00E-02,  avg # of iterations =  3.6

     Threshold (ethr) on eigenvalues was too large:
     Diagonalizing with lowered threshold

     Davidson diagonalization with overlap
     ethr =  7.52E-05,  avg # of iterations =  2.5

     total cpu time spent up to now is       38.1 secs

     total energy              =     -84.10077737 Ry
     Harris-Foulkes estimate   =     -84.10350532 Ry
     estimated scf accuracy    <       0.00781373 Ry

     iteration #  2     ecut=    30.00 Ry     beta=0.70
     Davidson diagonalization with overlap
     ethr =  7.10E-05,  avg # of iterations =  2.4

     total cpu time spent up to now is       49.8 secs

     total energy              =     -84.10199614 Ry
     Harris-Foulkes estimate   =     -84.10460564 Ry
     estimated scf accuracy    <       0.00494242 Ry

     iteration #  3     ecut=    30.00 Ry     beta=0.70
     Davidson diagonalization with overlap
     ethr =  4.49E-05,  avg # of iterations =  2.0

     total cpu time spent up to now is       64.2 secs

     total energy              =     -84.10331587 Ry
     Harris-Foulkes estimate   =     -84.10330909 Ry
     estimated scf accuracy    <       0.00020950 Ry

     iteration #  4     ecut=    30.00 Ry     beta=0.70
     Davidson diagonalization with overlap
     ethr =  1.90E-06,  avg # of iterations =  2.6

     total cpu time spent up to now is       83.6 secs

     total energy              =     -84.10334837 Ry
     Harris-Foulkes estimate   =     -84.10334721 Ry
     estimated scf accuracy    <       0.00000114 Ry

     iteration #  5     ecut=    30.00 Ry     beta=0.70
     Davidson diagonalization with overlap
     ethr =  1.03E-08,  avg # of iterations =  2.4

     total cpu time spent up to now is      102.5 secs

     End of self-consistent calculation

          k = 0.0000 0.0000 0.0625 (   635 PWs)   bands (ev):

     0.0853   0.5822   0.5822   0.5998   0.9653   0.9815  17.4915  17.5999
    17.5999  18.5757

     occupation numbers 
     1.0000   1.0000   1.0000   1.0000   1.0000   1.0000   0.0000   0.0000
     0.0000   0.0000

          k = 0.0000-0.0625 0.1250 (   639 PWs)   bands (ev):

     0.2295   0.5698   0.5897   0.6319   0.9471   0.9722  16.1294  16.9459
    17.1106  18.1536

     occupation numbers 
     1.0000   1.0000   1.0000   1.0000   1.0000   1.0000   0.0000   0.0000
     0.0000   0.0000

          k = 0.0000-0.1250 0.1875 (   639 PWs)   bands (ev):

     0.4171   0.5329   0.7088   0.7211   0.9217   0.9875  14.2769  16.0993
    16.4018  17.9053

     occupation numbers 
     1.0000   1.0000   1.0000   1.0000   1.0000   1.0000   0.0000   0.0000
     0.0000   0.0000

          k = 0.0000-0.1875 0.2500 (   635 PWs)   bands (ev):

     0.4564   0.4981   0.8346   0.9071   0.9583   1.1931  12.4171  15.2596
    15.7064  17.6238

     occupation numbers 
     1.0000   1.0000   1.0000   1.0000   1.0000   1.0000   0.0000   0.0000
     0.0000   0.0000

          k = 0.0000-0.2500 0.3125 (   643 PWs)   bands (ev):

     0.3905   0.4545   0.8993   0.9641   0.9769   1.8130  10.6322  14.5112
    15.1065  17.3758

     occupation numbers 
     1.0000   1.0000   1.0000   1.0000   1.0000   1.0000   0.0000   0.0000
     0.0000   0.0000

          k = 0.0000-0.3125 0.3750 (   641 PWs)   bands (ev):

     0.3291   0.4290   0.9124   0.9852   1.1023   2.6234   8.9595  13.9043
    14.6369  17.1979

     occupation numbers 
     1.0000   1.0000   1.0000   1.0000   1.0000   1.0000   0.0000   0.0000
     0.0000   0.0000

          k = 0.0000-0.3750 0.4375 (   647 PWs)   bands (ev):

     0.2753   0.4016   0.9135   0.9840   1.1817   3.5945   7.4111  13.4756
    14.3147  17.0850

     occupation numbers 
     1.0000   1.0000   1.0000   1.0000   1.0000   1.0304   0.0000   0.0000
     0.0000   0.0000

          k = 0.0000-0.4375 0.5000 (   637 PWs)   bands (ev):

     0.2616   0.4005   0.9249   1.0157   1.2536   4.7190   6.0014  13.2542
    14.1516  17.0366

     occupation numbers 
     1.0000   1.0000   1.0000   1.0000   1.0000   0.0003   0.0000   0.0000
     0.0000   0.0000

          k =-0.0625 0.0625 0.0625 (   639 PWs)   bands (ev):

     0.1583   0.5730   0.5730   0.6237   0.9630   0.9630  16.7386  17.1916
    17.1916  18.6412

     occupation numbers 
     1.0000   1.0000   1.0000   1.0000   1.0000   1.0000   0.0000   0.0000
     0.0000   0.0000

          k =-0.0625-0.0625 0.1875 (   633 PWs)   bands (ev):

     0.4068   0.5896   0.5904   0.7237   0.9305   1.0037  15.0460  15.6263
    16.6948  17.8703

     occupation numbers 
     1.0000   1.0000   1.0000   1.0000   1.0000   1.0000   0.0000   0.0000
     0.0000   0.0000

          k =-0.0625-0.1250 0.2500 (   634 PWs)   bands (ev):

     0.4841   0.5613   0.7124   0.8954   0.9033   1.1213  13.3591  14.6609
    16.0516  17.7298

     occupation numbers 
     1.0000   1.0000   1.0000   1.0000   1.0000   1.0000   0.0000   0.0000
     0.0000   0.0000

          k =-0.0625-0.1875 0.3125 (   634 PWs)   bands (ev):

     0.4536   0.5193   0.8585   0.8928   0.9702   1.6025  11.5696  13.9267
    15.3867  17.5176

     occupation numbers 
     1.0000   1.0000   1.0000   1.0000   1.0000   1.0000   0.0000   0.0000
     0.0000   0.0000

          k =-0.0625-0.2500 0.3750 (   638 PWs)   bands (ev):

     0.3911   0.4800   0.9023   0.9427   1.0214   2.3161   9.8560  13.3237
    14.8230  17.3164

     occupation numbers 
     1.0000   1.0000   1.0000   1.0000   1.0000   1.0000   0.0000   0.0000
     0.0000   0.0000

          k =-0.0625-0.3125 0.4375 (   640 PWs)   bands (ev):

     0.3289   0.4488   0.9113   0.9637   1.1246   3.2017   8.2537  12.8664
    14.4040  17.1712

     occupation numbers 
     1.0000   1.0000   1.0000   1.0000   1.0000   1.0001   0.0000   0.0000
     0.0000   0.0000

          k =-0.0625-0.3750 0.5000 (   641 PWs)   bands (ev):

     0.3015   0.4260   0.9134   0.9621   1.2043   4.2474   6.7807  12.5787
    14.1476  17.0865

     occupation numbers 
     1.0000   1.0000   1.0000   1.0000   1.0000   0.2386   0.0000   0.0000
     0.0000   0.0000

          k =-0.0625 0.5625-0.4375 (   636 PWs)   bands (ev):

     0.2881   0.4237   0.9263   0.9773   1.2442   5.4090   5.4754  12.4805
    14.0616  17.0608

     occupation numbers 
     1.0000   1.0000   1.0000   1.0000   1.0000   0.0000   0.0000   0.0000
     0.0000   0.0000

          k =-0.1250 0.1250 0.0625 (   640 PWs)   bands (ev):

     0.3472   0.5428   0.5864   0.7244   0.9469   0.9593  15.1754  16.1809
    16.4631  18.5084

     occupation numbers 
     1.0000   1.0000   1.0000   1.0000   1.0000   1.0000   0.0000   0.0000
     0.0000   0.0000

          k =-0.1250-0.1250 0.3125 (   632 PWs)   bands (ev):

     0.4735   0.6040   0.7454   0.8831   0.9665   1.5474  12.2847  13.1853
    15.5859  17.7284

     occupation numbers 
     1.0000   1.0000   1.0000   1.0000   1.0000   1.0000   0.0000   0.0000
     0.0000   0.0000

          k =-0.1250-0.1875 0.3750 (   638 PWs)   bands (ev):

     0.4387   0.5592   0.8222   0.8840   0.9924   2.1785  10.7820  12.3033
    15.0673  17.6300

     occupation numbers 
     1.0000   1.0000   1.0000   1.0000   1.0000   1.0000   0.0000   0.0000
     0.0000   0.0000

          k =-0.1250-0.2500 0.4375 (   640 PWs)   bands (ev):

     0.3930   0.5105   0.8703   0.9182   1.0465   2.9807   9.1938  11.7435
    14.6227  17.4646

     occupation numbers 
     1.0000   1.0000   1.0000   1.0000   1.0000   1.0000   0.0000   0.0000
     0.0000   0.0000

          k =-0.1250-0.3125 0.5000 (   636 PWs)   bands (ev):

     0.3606   0.4818   0.9068   0.9331   1.1348   3.9415   7.6886  11.3748
    14.3069  17.3463

     occupation numbers 
     1.0000   1.0000   1.0000   1.0000   1.0000   0.9741   0.0000   0.0000
     0.0000   0.0000

          k =-0.1250 0.6250-0.4375 (   634 PWs)   bands (ev):

     0.3392   0.4692   0.9194   0.9445   1.1892   5.0480   6.3052  11.1884
    14.1440  17.2860

     occupation numbers 
     1.0000   1.0000   1.0000   1.0000   1.0000   0.0000   0.0000   0.0000
     0.0000   0.0000

          k =-0.1875 0.1875 0.0625 (   635 PWs)   bands (ev):

     0.4659   0.5124   0.7165   0.9081   0.9742   1.0072  13.3305  15.3154
    15.7377  18.2077

     occupation numbers 
     1.0000   1.0000   1.0000   1.0000   1.0000   1.0000   0.0000   0.0000
     0.0000   0.0000

          k =-0.1875 0.1250 0.1250 (   636 PWs)   bands (ev):

     0.4840   0.5594   0.5777   0.9286   0.9444   0.9954  14.0233  14.8060
    15.5918  18.9112

     occupation numbers 
     1.0000   1.0000   1.0000   1.0000   1.0000   1.0000   0.0000   0.0000
     0.0000   0.0000

          k =-0.1875-0.1875 0.4375 (   636 PWs)   bands (ev):

     0.4254   0.5699   0.8194   0.9061   1.0271   2.9116   9.8896  10.9644
    14.7080  17.8934

     occupation numbers 
     1.0000   1.0000   1.0000   1.0000   1.0000   1.0000   0.0000   0.0000
     0.0000   0.0000

          k =-0.1875-0.2500 0.5000 (   634 PWs)   bands (ev):

     0.4085   0.5498   0.8392   0.9299   1.0830   3.7928   8.6349  10.2357
    14.4030  17.8813

     occupation numbers 
     1.0000   1.0000   1.0000   1.0000   1.0000   1.0833   0.0000   0.0000
     0.0000   0.0000

          k =-0.1875 0.6875-0.4375 (   637 PWs)   bands (ev):

     0.3852   0.5265   0.8331   0.9551   1.1268   4.8100   7.2810   9.8941
    14.2044  17.7936

     occupation numbers 
     1.0000   1.0000   1.0000   1.0000   1.0000   0.0000   0.0000   0.0000
     0.0000   0.0000

          k =-0.1875 0.6250-0.3750 (   632 PWs)   bands (ev):

     0.3842   0.5328   0.8437   0.9718   1.1438   5.8040   6.1693   9.7895
    14.1361  17.7619

     occupation numbers 
     1.0000   1.0000   1.0000   1.0000   1.0000   0.0000   0.0000   0.0000
     0.0000   0.0000

          k =-0.2500 0.2500 0.0625 (   638 PWs)   bands (ev):

     0.4302   0.4741   0.8676   0.9145   0.9846   1.5106  11.5128  14.5422
    15.0958  17.8883

     occupation numbers 
     1.0000   1.0000   1.0000   1.0000   1.0000   1.0000   0.0000   0.0000
     0.0000   0.0000

          k =-0.2500 0.1875 0.1250 (   630 PWs)   bands (ev):

     0.4824   0.5346   0.7332   0.9292   0.9774   1.4063  12.4145  13.8314
    14.8888  18.6863

     occupation numbers 
     1.0000   1.0000   1.0000   1.0000   1.0000   1.0000   0.0000   0.0000
     0.0000   0.0000

          k =-0.2500 0.7500-0.4375 (   634 PWs)   bands (ev):

     0.4059   0.5754   0.7885   0.9699   1.1019   4.7324   8.0351   9.0294
    14.2227  18.3868

     occupation numbers 
     1.0000   1.0000   1.0000   1.0000   1.0000   0.0002   0.0000   0.0000
     0.0000   0.0000

          k =-0.2500 0.6875-0.3750 (   633 PWs)   bands (ev):

     0.3986   0.5971   0.7609   1.0032   1.1076   5.7513   7.0785   8.5276
    14.1231  18.4633

     occupation numbers 
     1.0000   1.0000   1.0000   1.0000   1.0000   0.0000   0.0000   0.0000
     0.0000   0.0000

          k =-0.3125 0.3125 0.0625 (   642 PWs)   bands (ev):

     0.3664   0.4391   0.9171   0.9888   1.0011   2.2297   9.7889  13.8889
    14.5710  17.6335

     occupation numbers 
     1.0000   1.0000   1.0000   1.0000   1.0000   1.0000   0.0000   0.0000
     0.0000   0.0000

          k =-0.3125 0.2500 0.1250 (   634 PWs)   bands (ev):

     0.4322   0.4920   0.8621   0.9321   0.9930   2.0242  10.7042  13.1302
    14.3005  18.3818

     occupation numbers 
     1.0000   1.0000   1.0000   1.0000   1.0000   1.0000   0.0000   0.0000
     0.0000   0.0000

          k =-0.3125 0.1875 0.1875 (   634 PWs)   bands (ev):

     0.4509   0.5502   0.7606   0.9293   0.9904   1.9644  11.3662  12.4315
    14.2487  19.0577

     occupation numbers 
     1.0000   1.0000   1.0000   1.0000   1.0000   1.0000   0.0000   0.0000
     0.0000   0.0000

          k =-0.3125 0.6875-0.3125 (   634 PWs)   bands (ev):

     0.4038   0.6742   0.6742   1.0551   1.0551   6.3162   7.4139   7.4139
    14.0930  19.2222

     occupation numbers 
     1.0000   1.0000   1.0000   1.0000   1.0000   0.0000   0.0000   0.0000
     0.0000   0.0000

          k =-0.3750 0.3750 0.0625 (   644 PWs)   bands (ev):

     0.3053   0.4135   0.9250   0.9852   1.1229   3.1182   8.1817  13.3908
    14.1840  17.4577

     occupation numbers 
     1.0000   1.0000   1.0000   1.0000   1.0000   1.0000   0.0000   0.0000
     0.0000   0.0000

          k =-0.3750 0.3125 0.1250 (   640 PWs)   bands (ev):

     0.3758   0.4476   0.9294   0.9593   1.0223   2.8229   9.0683  12.5920
    13.8437  18.1354

     occupation numbers 
     1.0000   1.0000   1.0000   1.0000   1.0000   1.0000   0.0000   0.0000
     0.0000   0.0000

          k =-0.3750 0.2500 0.1875 (   635 PWs)   bands (ev):

     0.4228   0.5218   0.8438   0.9296   1.0108   2.6885   9.9683  11.5804
    13.7397  18.8819

     occupation numbers 
     1.0000   1.0000   1.0000   1.0000   1.0000   1.0000   0.0000   0.0000
     0.0000   0.0000

          k =-0.4375 0.4375 0.0625 (   638 PWs)   bands (ev):

     0.2783   0.4067   0.9288   1.0089   1.2106   4.1654   6.7059  13.0780
    13.9474  17.3611

     occupation numbers 
     1.0000   1.0000   1.0000   1.0000   1.0000   0.4246   0.0000   0.0000
     0.0000   0.0000

          k =-0.4375 0.3750 0.1250 (   639 PWs)   bands (ev):

     0.3305   0.4237   0.9388   0.9843   1.1149   3.7829   7.5449  12.2199
    13.5327  17.9731

     occupation numbers 
     1.0000   1.0000   1.0000   1.0000   1.0000   1.0832   0.0000   0.0000
     0.0000   0.0000

          k =-0.4375 0.3125 0.1875 (   638 PWs)   bands (ev):

     0.3850   0.4826   0.9107   0.9471   1.0395   3.5656   8.4779  11.0734
    13.3655  18.6731

     occupation numbers 
     1.0000   1.0000   1.0000   1.0000   1.0000   1.0231   0.0000   0.0000
     0.0000   0.0000

          k =-0.4375 0.2500 0.2500 (   638 PWs)   bands (ev):

     0.4022   0.5396   0.8386   0.9488   1.0208   3.4944   9.1525  10.3098
    13.3182  19.3555

     occupation numbers 
     1.0000   1.0000   1.0000   1.0000   1.0000   1.0104   0.0000   0.0000
     0.0000   0.0000

          k = 0.5000-0.5000 0.0625 (   638 PWs)   bands (ev):

     0.2674   0.3875   0.9286   1.0287   1.2360   5.2986   5.4293  12.9713
    13.8667  17.3294

     occupation numbers 
     1.0000   1.0000   1.0000   1.0000   1.0000   0.0000   0.0000   0.0000
     0.0000   0.0000

          k = 0.5000-0.5625 0.1250 (   636 PWs)   bands (ev):

     0.3152   0.4115   0.9423   1.0007   1.1741   4.8953   6.1516  12.0296
    13.3745  17.8924

     occupation numbers 
     1.0000   1.0000   1.0000   1.0000   1.0000   0.0000   0.0000   0.0000
     0.0000   0.0000

          k = 0.5000-0.6250 0.1875 (   636 PWs)   bands (ev):

     0.3564   0.4638   0.9445   0.9600   1.0986   4.5889   7.0637  10.7819
    13.1365  18.5413

     occupation numbers 
     1.0000   1.0000   1.0000   1.0000   1.0000   0.0036   0.0000   0.0000
     0.0000   0.0000

          k = 0.5000-0.6875 0.2500 (   639 PWs)   bands (ev):

     0.3790   0.5405   0.8500   0.9658   1.0520   4.4370   8.0109   9.6323
    13.0324  19.3218

     occupation numbers 
     1.0000   1.0000   1.0000   1.0000   1.0000   0.0335   0.0000   0.0000
     0.0000   0.0000

          k = 0.4375-0.5625 0.1875 (   632 PWs)   bands (ev):

     0.3560   0.4604   0.9526   0.9614   1.1382   5.6494   5.8731  10.6861
    13.0600  18.4980

     occupation numbers 
     1.0000   1.0000   1.0000   1.0000   1.0000   0.0000   0.0000   0.0000
     0.0000   0.0000

          k = 0.4375-0.6250 0.2500 (   636 PWs)   bands (ev):

     0.3709   0.5383   0.8614   0.9842   1.0798   5.4841   6.7806   9.3715
    12.8890  19.2440

     occupation numbers 
     1.0000   1.0000   1.0000   1.0000   1.0000   0.0000   0.0000   0.0000
     0.0000   0.0000

          k = 0.4375-0.6875 0.3125 (   637 PWs)   bands (ev):

     0.3747   0.5976   0.7902   0.9983   1.0629   5.4060   7.5553   8.4798
    12.8335  19.9577

     occupation numbers 
     1.0000   1.0000   1.0000   1.0000   1.0000   0.0000   0.0000   0.0000
     0.0000   0.0000

          k = 0.3750-0.6250 0.3125 (   640 PWs)   bands (ev):

     0.3726   0.6316   0.7560   1.0078   1.0422   6.1521   6.9784   8.0945
    12.7669  20.0554

     occupation numbers 
     1.0000   1.0000   1.0000   1.0000   1.0000   0.0000   0.0000   0.0000
     0.0000   0.0000

          k = 0.0000 0.0000 0.1875 (   639 PWs)   bands (ev):

     0.3725   0.5912   0.5912   0.6447   0.9030   1.0092  15.9220  16.2325
    16.2325  17.1734

     occupation numbers 
     1.0000   1.0000   1.0000   1.0000   1.0000   1.0000   0.0000   0.0000
     0.0000   0.0000

          k = 0.0000-0.0625 0.2500 (   637 PWs)   bands (ev):

     0.5264   0.5801   0.6995   0.7164   0.8765   1.0794  14.3458  15.3954
    15.6631  16.9577

     occupation numbers 
     1.0000   1.0000   1.0000   1.0000   1.0000   1.0000   0.0000   0.0000
     0.0000   0.0000

          k = 0.0000-0.1250 0.3125 (   635 PWs)   bands (ev):

     0.5262   0.5471   0.8314   0.8475   0.8826   1.3855  12.5289  14.5946
    15.0677  17.1919

     occupation numbers 
     1.0000   1.0000   1.0000   1.0000   1.0000   1.0000   0.0000   0.0000
     0.0000   0.0000

          k = 0.0000-0.1875 0.3750 (   636 PWs)   bands (ev):

     0.4606   0.5184   0.8488   0.9242   0.9727   1.9906  10.7641  13.8883
    14.5426  17.5029

     occupation numbers 
     1.0000   1.0000   1.0000   1.0000   1.0000   1.0000   0.0000   0.0000
     0.0000   0.0000

          k = 0.0000-0.2500 0.4375 (   640 PWs)   bands (ev):

     0.3833   0.4877   0.8708   0.9375   1.0776   2.7925   9.1002  13.3129
    14.1314  17.6967

     occupation numbers 
     1.0000   1.0000   1.0000   1.0000   1.0000   1.0000   0.0000   0.0000
     0.0000   0.0000

          k = 0.0000-0.3125 0.5000 (   639 PWs)   bands (ev):

     0.3299   0.4692   0.8938   0.9346   1.1810   3.7594   7.5590  12.9081
    13.8501  17.7392

     occupation numbers 
     1.0000   1.0000   1.0000   1.0000   1.0000   1.0806   0.0000   0.0000
     0.0000   0.0000

          k = 0.0000-0.3750 0.5625 (   638 PWs)   bands (ev):

     0.3091   0.4500   0.9116   0.9301   1.2432   4.8830   6.1507  12.6973
    13.7075  17.7352

     occupation numbers 
     1.0000   1.0000   1.0000   1.0000   1.0000   0.0000   0.0000   0.0000
     0.0000   0.0000

          k =-0.0625-0.0625 0.3125 (   634 PWs)   bands (ev):

     0.5496   0.6364   0.7302   0.8296   0.8581   1.3355  13.3024  14.0088
    15.4727  16.5503

     occupation numbers 
     1.0000   1.0000   1.0000   1.0000   1.0000   1.0000   0.0000   0.0000
     0.0000   0.0000

          k =-0.0625-0.1250 0.3750 (   637 PWs)   bands (ev):

     0.5103   0.6097   0.7980   0.8381   0.9298   1.8432  11.7179  13.1204
    15.0672  16.7025

     occupation numbers 
     1.0000   1.0000   1.0000   1.0000   1.0000   1.0000   0.0000   0.0000
     0.0000   0.0000

          k =-0.0625-0.1875 0.4375 (   641 PWs)   bands (ev):

     0.4541   0.5540   0.8114   0.8862   1.0137   2.5587  10.0492  12.5071
    14.6045  17.0867

     occupation numbers 
     1.0000   1.0000   1.0000   1.0000   1.0000   1.0000   0.0000   0.0000
     0.0000   0.0000

          k =-0.0625-0.2500 0.5000 (   636 PWs)   bands (ev):

     0.3989   0.5224   0.8382   0.9230   1.1248   3.4416   8.4683  12.0597
    14.2390  17.3946

     occupation numbers 
     1.0000   1.0000   1.0000   1.0000   1.0000   1.0052   0.0000   0.0000
     0.0000   0.0000

          k =-0.0625-0.3125 0.5625 (   634 PWs)   bands (ev):

     0.3634   0.5030   0.8651   0.9243   1.2013   4.4839   7.0048  11.7810
    14.0108  17.4874

     occupation numbers 
     1.0000   1.0000   1.0000   1.0000   1.0000   0.0179   0.0000   0.0000
     0.0000   0.0000

          k =-0.0625 0.6250-0.3750 (   638 PWs)   bands (ev):

     0.3407   0.4946   0.8621   0.9215   1.2233   5.6192   5.7256  11.6857
    13.9332  17.4952

     occupation numbers 
     1.0000   1.0000   1.0000   1.0000   1.0000   0.0000   0.0000   0.0000
     0.0000   0.0000

          k =-0.1250-0.1250 0.4375 (   636 PWs)   bands (ev):

     0.4945   0.6051   0.7957   0.8373   1.0082   2.4851  10.7760  11.7233
    15.0780  16.5550

     occupation numbers 
     1.0000   1.0000   1.0000   1.0000   1.0000   1.0000   0.0000   0.0000
     0.0000   0.0000

          k =-0.1250-0.1875 0.5000 (   638 PWs)   bands (ev):

     0.4550   0.5659   0.7985   0.8880   1.0664   3.2876   9.4181  10.9561
    14.8640  16.8237

     occupation numbers 
     1.0000   1.0000   1.0000   1.0000   1.0000   1.0004   0.0000   0.0000
     0.0000   0.0000

          k =-0.1250-0.2500 0.5625 (   638 PWs)   bands (ev):

     0.4235   0.5387   0.7973   0.9174   1.1389   4.2445   7.9698  10.5468
    14.6308  17.1545

     occupation numbers 
     1.0000   1.0000   1.0000   1.0000   1.0000   0.2442   0.0000   0.0000
     0.0000   0.0000

          k =-0.1250 0.6875-0.3750 (   638 PWs)   bands (ev):

     0.3981   0.5374   0.7891   0.9318   1.1851   5.3350   6.6165  10.3514
    14.4972  17.2889

     occupation numbers 
     1.0000   1.0000   1.0000   1.0000   1.0000   0.0000   0.0000   0.0000
     0.0000   0.0000

          k =-0.1875 0.1875 0.1875 (   631 PWs)   bands (ev):

     0.5280   0.5280   0.6438   0.9587   0.9587   1.3535  12.9214  14.0714
    14.0714  19.7991

     occupation numbers 
     1.0000   1.0000   1.0000   1.0000   1.0000   1.0000   0.0000   0.0000
     0.0000   0.0000

          k =-0.1875-0.1875 0.5625 (   639 PWs)   bands (ev):

     0.4656   0.5488   0.7703   0.9162   1.1005   4.1662   8.7145   9.6988
    14.9774  16.9279

     occupation numbers 
     1.0000   1.0000   1.0000   1.0000   1.0000   0.4223   0.0000   0.0000
     0.0000   0.0000

          k =-0.1875 0.7500-0.3750 (   638 PWs)   bands (ev):

     0.4528   0.5527   0.7325   0.9733   1.1281   5.1709   7.6173   9.1250
    14.9569  17.2407

     occupation numbers 
     1.0000   1.0000   1.0000   1.0000   1.0000   0.0000   0.0000   0.0000
     0.0000   0.0000

          k =-0.1875 0.6875-0.3125 (   633 PWs)   bands (ev):

     0.4581   0.5674   0.7132   0.9950   1.1548   6.0705   6.6345   8.9860
    14.9334  17.3691

     occupation numbers 
     1.0000   1.0000   1.0000   1.0000   1.0000   0.0000   0.0000   0.0000
     0.0000   0.0000

          k =-0.2500 0.2500 0.1875 (   634 PWs)   bands (ev):

     0.4982   0.5034   0.7391   0.9466   0.9756   1.8959  11.5169  12.9694
    13.4520  19.9985

     occupation numbers 
     1.0000   1.0000   1.0000   1.0000   1.0000   1.0000   0.0000   0.0000
     0.0000   0.0000

          k =-0.2500 0.7500-0.3125 (   631 PWs)   bands (ev):

     0.4775   0.5950   0.6681   1.0421   1.1201   6.1259   7.3678   7.9900
    15.1096  17.6565

     occupation numbers 
     1.0000   1.0000   1.0000   1.0000   1.0000   0.0000   0.0000   0.0000
     0.0000   0.0000

          k =-0.3125 0.3125 0.1875 (   639 PWs)   bands (ev):

     0.4511   0.4544   0.8585   0.9461   0.9818   2.6136   9.9491  12.2496
    12.9552  19.8329

     occupation numbers 
     1.0000   1.0000   1.0000   1.0000   1.0000   1.0000   0.0000   0.0000
     0.0000   0.0000

          k =-0.3125 0.2500 0.2500 (   635 PWs)   bands (ev):

     0.4607   0.5116   0.7821   0.9569   0.9863   2.5496  10.5358  11.7965
    12.6808  20.4546

     occupation numbers 
     1.0000   1.0000   1.0000   1.0000   1.0000   1.0000   0.0000   0.0000
     0.0000   0.0000

          k =-0.3750 0.3750 0.1875 (   637 PWs)   bands (ev):

     0.3960   0.4336   0.9564   0.9798   1.0026   3.4883   8.4180  11.7570
    12.5961  19.6383

     occupation numbers 
     1.0000   1.0000   1.0000   1.0000   1.0000   1.0097   0.0000   0.0000
     0.0000   0.0000

          k =-0.3750 0.3125 0.2500 (   636 PWs)   bands (ev):

     0.4321   0.5003   0.8496   0.9655   0.9977   3.3491   9.2824  10.9652
    12.2151  20.4110

     occupation numbers 
     1.0000   1.0000   1.0000   1.0000   1.0000   1.0013   0.0000   0.0000
     0.0000   0.0000

          k = 0.5625-0.5625 0.1875 (   641 PWs)   bands (ev):

     0.3645   0.4137   0.9515   0.9937   1.0588   4.5129   6.9899  11.4608
    12.3771  19.4833

     occupation numbers 
     1.0000   1.0000   1.0000   1.0000   1.0000   0.0118   0.0000   0.0000
     0.0000   0.0000

          k = 0.5625-0.6250 0.2500 (   640 PWs)   bands (ev):

     0.4045   0.4695   0.9160   0.9674   1.0089   4.2898   7.9163  10.5020
    11.9105  20.2602

     occupation numbers 
     1.0000   1.0000   1.0000   1.0000   1.0000   0.1663   0.0000   0.0000
     0.0000   0.0000

          k = 0.5625-0.6875 0.3125 (   637 PWs)   bands (ev):

     0.4154   0.5293   0.8525   0.9788   1.0046   4.2182   8.5700   9.7853
    11.8037  20.9187

     occupation numbers 
     1.0000   1.0000   1.0000   1.0000   1.0000   0.2983   0.0000   0.0000
     0.0000   0.0000

          k = 0.5000-0.5000 0.1875 (   638 PWs)   bands (ev):

     0.3549   0.4047   0.9618   1.0031   1.0998   5.5966   5.7705  11.3617
    12.3029  19.4396

     occupation numbers 
     1.0000   1.0000   1.0000   1.0000   1.0000   0.0000   0.0000   0.0000
     0.0000   0.0000

          k = 0.5000-0.5625 0.2500 (   641 PWs)   bands (ev):

     0.3898   0.4565   0.9423   0.9808   1.0229   5.3464   6.6228  10.2868
    11.7581  20.1741

     occupation numbers 
     1.0000   1.0000   1.0000   1.0000   1.0000   0.0000   0.0000   0.0000
     0.0000   0.0000

          k = 0.5000-0.6250 0.3125 (   641 PWs)   bands (ev):

     0.3975   0.5396   0.8377   0.9895   1.0196   5.1919   7.5724   9.1644
    11.5670  20.9726

     occupation numbers 
     1.0000   1.0000   1.0000   1.0000   1.0000   0.0000   0.0000   0.0000
     0.0000   0.0000

          k = 0.4375-0.5625 0.3125 (   639 PWs)   bands (ev):

     0.3956   0.5563   0.8351   0.9990   1.0258   6.0036   6.7073   9.0034
    11.4893  20.9480

     occupation numbers 
     1.0000   1.0000   1.0000   1.0000   1.0000   0.0000   0.0000   0.0000
     0.0000   0.0000

          k = 0.4375-0.6250 0.3750 (   640 PWs)   bands (ev):

     0.3904   0.6287   0.7598   1.0070   1.0182   6.0675   7.3818   8.0734
    11.4063  21.6290

     occupation numbers 
     1.0000   1.0000   1.0000   1.0000   1.0000   0.0000   0.0000   0.0000
     0.0000   0.0000

          k = 0.0000 0.0000 0.3125 (   631 PWs)   bands (ev):

     0.6447   0.6447   0.7234   0.7451   0.8290   1.2898  14.2664  14.5650
    14.5650  15.8786

     occupation numbers 
     1.0000   1.0000   1.0000   1.0000   1.0000   1.0000   0.0000   0.0000
     0.0000   0.0000

          k = 0.0000-0.0625 0.3750 (   633 PWs)   bands (ev):

     0.6358   0.6530   0.7674   0.8098   0.8220   1.6914  12.7293  13.7780
    14.2215  15.7210

     occupation numbers 
     1.0000   1.0000   1.0000   1.0000   1.0000   1.0000   0.0000   0.0000
     0.0000   0.0000

          k = 0.0000-0.1250 0.4375 (   631 PWs)   bands (ev):

     0.5572   0.6343   0.7570   0.8693   0.9532   2.3131  11.0164  13.0878
    13.8441  16.0967

     occupation numbers 
     1.0000   1.0000   1.0000   1.0000   1.0000   1.0000   0.0000   0.0000
     0.0000   0.0000

          k = 0.0000-0.1875 0.5000 (   637 PWs)   bands (ev):

     0.4695   0.5922   0.7625   0.8980   1.0629   3.1098   9.3778  12.5274
    13.5090  16.7066

     occupation numbers 
     1.0000   1.0000   1.0000   1.0000   1.0000   1.0000   0.0000   0.0000
     0.0000   0.0000

          k = 0.0000-0.2500 0.5625 (   633 PWs)   bands (ev):

     0.4188   0.5708   0.7905   0.9059   1.1696   4.0732   7.8521  12.1339
    13.2754  17.4524

     occupation numbers 
     1.0000   1.0000   1.0000   1.0000   1.0000   0.6752   0.0000   0.0000
     0.0000   0.0000

          k = 0.0000-0.3125 0.6250 (   636 PWs)   bands (ev):

     0.3770   0.5537   0.7980   0.9080   1.2210   5.1823   6.4571  11.9292
    13.1553  18.1969

     occupation numbers 
     1.0000   1.0000   1.0000   1.0000   1.0000   0.0000   0.0000   0.0000
     0.0000   0.0000

          k =-0.0625-0.0625 0.4375 (   634 PWs)   bands (ev):

     0.6116   0.6549   0.7793   0.7797   0.9145   2.2336  11.8001  12.5199
    14.1358  15.4144

     occupation numbers 
     1.0000   1.0000   1.0000   1.0000   1.0000   1.0000   0.0000   0.0000
     0.0000   0.0000

          k =-0.0625-0.1250 0.5000 (   637 PWs)   bands (ev):

     0.5451   0.6178   0.7517   0.8464   1.0120   2.9463  10.3449  11.7497
    13.9683  15.6787

     occupation numbers 
     1.0000   1.0000   1.0000   1.0000   1.0000   1.0000   0.0000   0.0000
     0.0000   0.0000

          k =-0.0625-0.1875 0.5625 (   635 PWs)   bands (ev):

     0.4800   0.6082   0.7419   0.8885   1.1166   3.8251   8.8122  11.2808
    13.7241  16.3080

     occupation numbers 
     1.0000   1.0000   1.0000   1.0000   1.0000   1.0788   0.0000   0.0000
     0.0000   0.0000

          k =-0.0625-0.2500 0.6250 (   637 PWs)   bands (ev):

     0.4277   0.5979   0.7317   0.9075   1.1899   4.8524   7.3750  10.9979
    13.5501  17.1114

     occupation numbers 
     1.0000   1.0000   1.0000   1.0000   1.0000   0.0000   0.0000   0.0000
     0.0000   0.0000

          k =-0.0625 0.6875-0.3125 (   638 PWs)   bands (ev):

     0.4098   0.5986   0.7249   0.9137   1.2101   5.8747   6.2139  10.9018
    13.4899  17.7596

     occupation numbers 
     1.0000   1.0000   1.0000   1.0000   1.0000   0.0000   0.0000   0.0000
     0.0000   0.0000

          k =-0.1250-0.1250 0.5625 (   637 PWs)   bands (ev):

     0.5430   0.5546   0.7537   0.8868   1.0786   3.7412   9.5682  10.4581
    14.2565  15.6170

     occupation numbers 
     1.0000   1.0000   1.0000   1.0000   1.0000   1.0768   0.0000   0.0000
     0.0000   0.0000

          k =-0.1250-0.1875 0.6250 (   638 PWs)   bands (ev):

     0.4863   0.5687   0.7122   0.9407   1.1395   4.6845   8.3587   9.8398
    14.2960  16.0795

     occupation numbers 
     1.0000   1.0000   1.0000   1.0000   1.0000   0.0006   0.0000   0.0000
     0.0000   0.0000

          k =-0.1250 0.7500-0.3125 (   639 PWs)   bands (ev):

     0.4563   0.6050   0.6612   0.9669   1.1741   5.7419   7.0804   9.6095
    14.2463  16.8376

     occupation numbers 
     1.0000   1.0000   1.0000   1.0000   1.0000   0.0000   0.0000   0.0000
     0.0000   0.0000

          k =-0.1875 0.8125-0.3125 (   637 PWs)   bands (ev):

     0.5141   0.5454   0.6584   1.0197   1.1424   5.6622   7.8949   8.6762
    14.7721  16.2130

     occupation numbers 
     1.0000   1.0000   1.0000   1.0000   1.0000   0.0000   0.0000   0.0000
     0.0000   0.0000

          k =-0.1875 0.7500-0.2500 (   640 PWs)   bands (ev):

     0.5098   0.5854   0.5990   1.0557   1.1186   6.4474   7.2361   8.3287
    14.9199  16.6786

     occupation numbers 
     1.0000   1.0000   1.0000   1.0000   1.0000   0.0000   0.0000   0.0000
     0.0000   0.0000

          k =-0.3125 0.3125 0.3125 (   631 PWs)   bands (ev):

     0.4868   0.4868   0.8043   0.9962   0.9962   3.2794   9.7115  11.2937
    11.2937  22.1414

     occupation numbers 
     1.0000   1.0000   1.0000   1.0000   1.0000   1.0004   0.0000   0.0000
     0.0000   0.0000

          k = 0.6250-0.6250 0.3125 (   635 PWs)   bands (ev):

     0.4676   0.4898   0.8497   0.9802   0.9978   4.1455   8.7078  10.3439
    10.9279  21.8920

     occupation numbers 
     1.0000   1.0000   1.0000   1.0000   1.0000   0.4766   0.0000   0.0000
     0.0000   0.0000

          k = 0.5625-0.5625 0.3125 (   648 PWs)   bands (ev):

     0.4410   0.4756   0.8534   0.9764   0.9812   5.1189   7.5306   9.8762
    10.7028  21.8573

     occupation numbers 
     1.0000   1.0000   1.0000   1.0000   1.0000   0.0000   0.0000   0.0000
     0.0000   0.0000

          k = 0.5625-0.6250 0.3750 (   645 PWs)   bands (ev):

     0.4533   0.5223   0.7909   0.9844   0.9941   5.0430   8.1449   9.4015
    10.3767  22.5530

     occupation numbers 
     1.0000   1.0000   1.0000   1.0000   1.0000   0.0000   0.0000   0.0000
     0.0000   0.0000

          k = 0.5000-0.5000 0.3125 (   644 PWs)   bands (ev):

     0.4395   0.4905   0.8634   0.9764   1.0009   5.9513   6.6134   9.7408
    10.6291  21.8254

     occupation numbers 
     1.0000   1.0000   1.0000   1.0000   1.0000   0.0000   0.0000   0.0000
     0.0000   0.0000

          k = 0.5000-0.5625 0.3750 (   646 PWs)   bands (ev):

     0.4502   0.5527   0.7670   0.9861   1.0008   5.9595   7.3948   8.8389
    10.1913  22.7085

     occupation numbers 
     1.0000   1.0000   1.0000   1.0000   1.0000   0.0000   0.0000   0.0000
     0.0000   0.0000

          k = 0.4375-0.5625 0.4375 (   643 PWs)   bands (ev):

     0.4471   0.6536   0.6536   1.0163   1.0163   6.3787   7.8231   7.8231
    10.0737  23.3701

     occupation numbers 
     1.0000   1.0000   1.0000   1.0000   1.0000   0.0000   0.0000   0.0000
     0.0000   0.0000

          k = 0.0000 0.0000 0.4375 (   619 PWs)   bands (ev):

     0.7146   0.7567   0.7567   0.7579   0.8522   2.1565  12.8918  12.9959
    12.9959  14.8328

     occupation numbers 
     1.0000   1.0000   1.0000   1.0000   1.0000   1.0000   0.0000   0.0000
     0.0000   0.0000

          k = 0.0000-0.0625 0.5000 (   630 PWs)   bands (ev):

     0.6121   0.6946   0.7461   0.8273   0.9339   2.7775  11.3628  12.3039
    12.9881  14.7289

     occupation numbers 
     1.0000   1.0000   1.0000   1.0000   1.0000   1.0000   0.0000   0.0000
     0.0000   0.0000

          k = 0.0000-0.1250 0.5625 (   635 PWs)   bands (ev):

     0.5206   0.6690   0.7226   0.8709   1.0482   3.5681   9.7753  11.7475
    12.8589  15.1663

     occupation numbers 
     1.0000   1.0000   1.0000   1.0000   1.0000   1.0236   0.0000   0.0000
     0.0000   0.0000

          k = 0.0000-0.1875 0.6250 (   636 PWs)   bands (ev):

     0.4539   0.6610   0.7012   0.9029   1.1496   4.5169   8.2785  11.3552
    12.7120  15.9032

     occupation numbers 
     1.0000   1.0000   1.0000   1.0000   1.0000   0.0111   0.0000   0.0000
     0.0000   0.0000

          k = 0.0000-0.2500 0.6875 (   641 PWs)   bands (ev):

     0.4123   0.6470   0.6755   0.9155   1.2036   5.5958   6.9187  11.1506
    12.6268  16.8046

     occupation numbers 
     1.0000   1.0000   1.0000   1.0000   1.0000   0.0000   0.0000   0.0000
     0.0000   0.0000

          k =-0.0625-0.0625 0.5625 (   634 PWs)   bands (ev):

     0.5501   0.6360   0.7852   0.8565   1.0096   3.4814  10.5784  11.2108
    13.0051  14.5380

     occupation numbers 
     1.0000   1.0000   1.0000   1.0000   1.0000   1.0089   0.0000   0.0000
     0.0000   0.0000

          k =-0.0625-0.1250 0.6250 (   638 PWs)   bands (ev):

     0.4832   0.6002   0.7629   0.9127   1.0978   4.3435   9.2576  10.5952
    13.0574  14.8762

     occupation numbers 
     1.0000   1.0000   1.0000   1.0000   1.0000   0.0988   0.0000   0.0000
     0.0000   0.0000

          k =-0.0625-0.1875 0.6875 (   642 PWs)   bands (ev):

     0.4411   0.5706   0.7305   0.9477   1.1707   5.3475   7.8768  10.2932
    13.0033  15.6091

     occupation numbers 
     1.0000   1.0000   1.0000   1.0000   1.0000   0.0000   0.0000   0.0000
     0.0000   0.0000

          k =-0.0625 0.7500-0.2500 (   643 PWs)   bands (ev):

     0.4248   0.5664   0.7215   0.9544   1.1975   6.2601   6.8334  10.1937
    12.9735  16.3451

     occupation numbers 
     1.0000   1.0000   1.0000   1.0000   1.0000   0.0000   0.0000   0.0000
     0.0000   0.0000

          k =-0.1250-0.1250 0.6875 (   642 PWs)   bands (ev):

     0.4578   0.5361   0.7458   0.9837   1.1420   5.2616   8.6756   9.4292
    13.5002  14.9290

     occupation numbers 
     1.0000   1.0000   1.0000   1.0000   1.0000   0.0000   0.0000   0.0000
     0.0000   0.0000

          k =-0.1250 0.8125-0.2500 (   647 PWs)   bands (ev):

     0.4406   0.5092   0.7172   1.0353   1.1489   6.2656   7.6623   8.9990
    13.6905  15.4846

     occupation numbers 
     1.0000   1.0000   1.0000   1.0000   1.0000   0.0000   0.0000   0.0000
     0.0000   0.0000

          k =-0.1875 0.8125-0.1875 (   649 PWs)   bands (ev):

     0.4638   0.4638   0.7034   1.1073   1.1073   6.8425   7.9378   7.9378
    14.0958  15.7399

     occupation numbers 
     1.0000   1.0000   1.0000   1.0000   1.0000   0.0000   0.0000   0.0000
     0.0000   0.0000

          k = 0.5625-0.5625 0.4375 (   640 PWs)   bands (ev):

     0.5232   0.5232   0.7353   1.0100   1.0100   5.9053   7.8714   9.1685
     9.1685  24.0640

     occupation numbers 
     1.0000   1.0000   1.0000   1.0000   1.0000   0.0000   0.0000   0.0000
     0.0000   0.0000

          k = 0.5000-0.5000 0.4375 (   654 PWs)   bands (ev):

     0.5125   0.5566   0.6662   0.9714   1.0024   6.4104   7.7390   8.5801
     9.0875  24.3286

     occupation numbers 
     1.0000   1.0000   1.0000   1.0000   1.0000   0.0000   0.0000   0.0000
     0.0000   0.0000

          k = 0.0000 0.0000 0.5625 (   639 PWs)   bands (ev):

     0.5475   0.6427   0.8388   0.8388   0.9343   3.3925  11.6114  11.6114
    11.8656  14.0254

     occupation numbers 
     1.0000   1.0000   1.0000   1.0000   1.0000   1.0025   0.0000   0.0000
     0.0000   0.0000

          k = 0.0000-0.0625 0.6250 (   638 PWs)   bands (ev):

     0.4815   0.5998   0.8498   0.8957   1.0327   4.1688  10.2519  11.0507
    12.0385  13.9915

     occupation numbers 
     1.0000   1.0000   1.0000   1.0000   1.0000   0.4158   0.0000   0.0000
     0.0000   0.0000

          k = 0.0000-0.1250 0.6875 (   643 PWs)   bands (ev):

     0.4286   0.5269   0.8386   0.9396   1.1344   5.0921   8.8170  10.6555
    12.1221  14.4769

     occupation numbers 
     1.0000   1.0000   1.0000   1.0000   1.0000   0.0000   0.0000   0.0000
     0.0000   0.0000

          k = 0.0000-0.1875 0.7500 (   644 PWs)   bands (ev):

     0.3950   0.5038   0.8381   0.9526   1.1938   6.1271   7.5162  10.4506
    12.1215  15.2657

     occupation numbers 
     1.0000   1.0000   1.0000   1.0000   1.0000   0.0000   0.0000   0.0000
     0.0000   0.0000

          k =-0.0625-0.0625 0.6875 (   647 PWs)   bands (ev):

     0.4250   0.5002   0.8703   0.9608   1.0889   5.0035   9.6304  10.1382
    12.1497  13.9065

     occupation numbers 
     1.0000   1.0000   1.0000   1.0000   1.0000   0.0000   0.0000   0.0000
     0.0000   0.0000

          k =-0.0625-0.1250 0.7500 (   645 PWs)   bands (ev):

     0.3864   0.4560   0.8667   1.0235   1.1606   5.9738   8.4721   9.7066
    12.3585  14.3083

     occupation numbers 
     1.0000   1.0000   1.0000   1.0000   1.0000   0.0000   0.0000   0.0000
     0.0000   0.0000

          k =-0.0625 0.8125-0.1875 (   645 PWs)   bands (ev):

     0.3772   0.4419   0.8719   1.0381   1.1764   6.7915   7.5455   9.5965
    12.4097  14.8955

     occupation numbers 
     1.0000   1.0000   1.0000   1.0000   1.0000   0.0000   0.0000   0.0000
     0.0000   0.0000

          k =-0.1250 0.8750-0.1875 (   643 PWs)   bands (ev):

     0.3847   0.4110   0.8785   1.0979   1.1599   6.8950   8.2009   8.6867
    12.8062  14.4861

     occupation numbers 
     1.0000   1.0000   1.0000   1.0000   1.0000   0.0000   0.0000   0.0000
     0.0000   0.0000

          k = 0.0000 0.0000 0.6875 (   647 PWs)   bands (ev):

     0.4057   0.4898   0.9636   0.9636   1.0312   4.9145  10.4855  10.4855
    11.1552  13.4525

     occupation numbers 
     1.0000   1.0000   1.0000   1.0000   1.0000   0.0000   0.0000   0.0000
     0.0000   0.0000

          k = 0.0000-0.0625 0.7500 (   644 PWs)   bands (ev):

     0.3634   0.4285   0.9825   1.0190   1.1256   5.8074   9.4052  10.0846
    11.3567  13.4921

     occupation numbers 
     1.0000   1.0000   1.0000   1.0000   1.0000   0.0000   0.0000   0.0000
     0.0000   0.0000

          k = 0.0000-0.1250 0.8125 (   642 PWs)   bands (ev):

     0.3413   0.3890   0.9871   1.0570   1.1879   6.7893   8.2047   9.8763
    11.5449  13.9940

     occupation numbers 
     1.0000   1.0000   1.0000   1.0000   1.0000   0.0000   0.0000   0.0000
     0.0000   0.0000

          k =-0.0625-0.0625 0.8125 (   645 PWs)   bands (ev):

     0.3288   0.3661   1.0065   1.0888   1.1634   6.7307   8.9844   9.3643
    11.4967  13.5069

     occupation numbers 
     1.0000   1.0000   1.0000   1.0000   1.0000   0.0000   0.0000   0.0000
     0.0000   0.0000

          k =-0.0625 0.8750-0.1250 (   652 PWs)   bands (ev):

     0.3120   0.3365   1.0032   1.1131   1.1550   7.4698   8.2916   9.1494
    11.6672  13.8396

     occupation numbers 
     1.0000   1.0000   1.0000   1.0000   1.0000   0.0000   0.0000   0.0000
     0.0000   0.0000

          k = 0.0000 0.0000 0.8125 (   650 PWs)   bands (ev):

     0.3032   0.3426   1.0850   1.0850   1.1149   6.6576   9.6784   9.6784
    10.6334  13.0899

     occupation numbers 
     1.0000   1.0000   1.0000   1.0000   1.0000   0.0000   0.0000   0.0000
     0.0000   0.0000

          k = 0.0000-0.0625 0.8750 (   651 PWs)   bands (ev):

     0.2825   0.3002   1.0992   1.1190   1.1603   7.5873   8.8878   9.4667
    10.7560  13.1966

     occupation numbers 
     1.0000   1.0000   1.0000   1.0000   1.0000   0.0000   0.0000   0.0000
     0.0000   0.0000

          k =-0.0625 0.9375-0.0625 (   652 PWs)   bands (ev):

     0.2747   0.2747   1.1045   1.1621   1.1621   8.2034   8.9534   8.9534
    10.6937  13.3135

     occupation numbers 
     1.0000   1.0000   1.0000   1.0000   1.0000   0.0000   0.0000   0.0000
     0.0000   0.0000

          k = 0.0000 0.0000 0.9375 (   658 PWs)   bands (ev):

     0.2489   0.2490   1.1293   1.1669   1.1669   8.4780   9.2527   9.2527
     9.9403  12.9149

     occupation numbers 
     1.0000   1.0000   1.0000   1.0000   1.0000   0.0000   0.0000   0.0000
     0.0000   0.0000

     the Fermi energy is     4.1748 ev

!    total energy              =     -84.10334873 Ry
     Harris-Foulkes estimate   =     -84.10334883 Ry
     estimated scf accuracy    <       0.00000012 Ry

     The total energy is the sum of the following terms:

     one-electron contribution =     -27.93462828 Ry
     hartree contribution      =      23.04649270 Ry
     xc contribution           =     -22.17533332 Ry
     ewald contribution        =     -57.03979893 Ry
     smearing contrib. (-TS)   =      -0.00008091 Ry

     convergence has been achieved in   5 iterations

     Writing output data file Ag_exc2.save

     init_run     :      6.68s CPU      6.89s WALL (       1 calls)
     electrons    :     89.51s CPU     93.78s WALL (       1 calls)

     Called by init_run:
     wfcinit      :      4.31s CPU      4.45s WALL (       1 calls)
     potinit      :      0.07s CPU      0.07s WALL (       1 calls)

     Called by electrons:
     c_bands      :     76.39s CPU     79.89s WALL (       6 calls)
     sum_band     :     12.23s CPU     12.92s WALL (       6 calls)
     v_of_rho     :      0.33s CPU      0.34s WALL (       6 calls)
     v_h          :      0.01s CPU      0.01s WALL (       6 calls)
     v_xc         :      0.32s CPU      0.33s WALL (       6 calls)
     newd         :      0.69s CPU      0.77s WALL (       6 calls)
     mix_rho      :      0.02s CPU      0.02s WALL (       6 calls)

     Called by c_bands:
     init_us_2    :      2.86s CPU      3.09s WALL (    1820 calls)
     cegterg      :     71.86s CPU     75.07s WALL (     840 calls)

     Called by sum_band:
     sum_band:bec :      0.05s CPU      0.05s WALL (     840 calls)
     addusdens    :      0.63s CPU      0.66s WALL (       6 calls)

     Called by *egterg:
     h_psi        :     57.19s CPU     59.88s WALL (    3156 calls)
     s_psi        :      3.23s CPU      3.36s WALL (    3156 calls)
     g_psi        :      0.26s CPU      0.25s WALL (    2176 calls)
     cdiaghg      :      3.21s CPU      3.22s WALL (    2876 calls)
     cegterg:over :      4.72s CPU      4.97s WALL (    2176 calls)
     cegterg:upda :      2.78s CPU      2.93s WALL (    2176 calls)
     cegterg:last :      1.77s CPU      1.78s WALL (     840 calls)

     Called by h_psi:
     h_psi:vloc   :     50.18s CPU     52.51s WALL (    3156 calls)
     h_psi:vnl    :      6.80s CPU      7.16s WALL (    3156 calls)
     add_vuspsi   :      3.36s CPU      3.40s WALL (    3156 calls)

     General routines
     calbec       :      4.72s CPU      5.04s WALL (    3996 calls)
     fft          :      0.15s CPU      0.17s WALL (      80 calls)
     fftw         :     52.95s CPU     55.55s WALL (   52908 calls)
     davcio       :      0.00s CPU      0.01s WALL (     140 calls)

     Parallel routines
     fft_scatter  :      2.50s CPU      2.80s WALL (   52988 calls)

     PWSCF        :  1m38.44s CPU     1m43.06s WALL


   This run was terminated on:  21:20:17  18Feb2020            

=------------------------------------------------------------------------------=
   JOB DONE.
=------------------------------------------------------------------------------=
