
     Program PWSCF v.5.1 starts on 18Feb2020 at 21:17:38 

     This program is part of the open-source Quantum ESPRESSO suite
     for quantum simulation of materials; please cite
         "P. Giannozzi et al., J. Phys.:Condens. Matter 21 395502 (2009);
          URL http://www.quantum-espresso.org", 
     in publications or presentations arising from this work. More details at
     http://www.quantum-espresso.org/quote

     Parallel version (MPI), running on     1 processors
     Waiting for input...
     Reading input from standard input

     Current dimensions of program PWSCF are:
     Max number of different atomic species (ntypx) = 10
     Max number of k-points (npk) =  40000
     Max angular momentum in pseudopotentials (lmaxx) =  3

     Subspace diagonalization in iterative solution of the eigenvalue problem:
     a serial algorithm will be used


     G-vector sticks info
     --------------------
     sticks:   dense  smooth     PW     G-vecs:    dense   smooth      PW
     Sum         399     399    129                 5089     5089     959



     bravais-lattice index     =            3
     lattice parameter (alat)  =       7.7200  a.u.
     unit-cell volume          =     230.0498 (a.u.)^3
     number of atoms/cell      =            1
     number of atomic types    =            1
     number of electrons       =        11.00
     number of Kohn-Sham states=           10
     kinetic-energy cutoff     =      30.0000  Ry
     charge density cutoff     =     120.0000  Ry
     convergence threshold     =      1.0E-06
     mixing beta               =       0.7000
     number of iterations used =            8  plain     mixing
     Exchange-correlation      = PBE ( 1  4  3  4 0)

     celldm(1)=   7.720000  celldm(2)=   0.000000  celldm(3)=   0.000000
     celldm(4)=   0.000000  celldm(5)=   0.000000  celldm(6)=   0.000000

     crystal axes: (cart. coord. in units of alat)
               a(1) = (   0.500000   0.500000   0.500000 )  
               a(2) = (  -0.500000   0.500000   0.500000 )  
               a(3) = (  -0.500000  -0.500000   0.500000 )  

     reciprocal axes: (cart. coord. in units 2 pi/alat)
               b(1) = (  1.000000  0.000000  1.000000 )  
               b(2) = ( -1.000000  1.000000  0.000000 )  
               b(3) = (  0.000000 -1.000000  1.000000 )  


     PseudoPot. # 1 for Ag read from file:
     ../pseudo/Ag.pbe-n-rrkjus_psl.1.0.0.UPF
     MD5 check sum: d841cbfac2b0861aec33b46768a516bf
     Pseudo is Ultrasoft + core correction, Zval = 11.0
     Generated using "atomic" code by A. Dal Corso  v.6.2.2
     Using radial grid of 1237 points,  6 beta functions with: 
                l(1) =   0
                l(2) =   0
                l(3) =   1
                l(4) =   1
                l(5) =   2
                l(6) =   2
     Q(r) pseudized with 0 coefficients 


     atomic species   valence    mass     pseudopotential
        Ag            11.00   107.86000     Ag( 1.00)

     48 Sym. Ops., with inversion, found


                                    s                        frac. trans.

      isym =  1     identity                                     

 cryst.   s( 1) = (     1          0          0      )
                  (     0          1          0      )
                  (     0          0          1      )

 cart.    s( 1) = (  1.0000000  0.0000000  0.0000000 )
                  (  0.0000000  1.0000000  0.0000000 )
                  (  0.0000000  0.0000000  1.0000000 )


      isym =  2     180 deg rotation - cart. axis [0,0,1]        

 cryst.   s( 2) = (     0          0          1      )
                  (     1         -1          1      )
                  (     1          0          0      )

 cart.    s( 2) = ( -1.0000000  0.0000000  0.0000000 )
                  (  0.0000000 -1.0000000  0.0000000 )
                  (  0.0000000  0.0000000  1.0000000 )


      isym =  3     180 deg rotation - cart. axis [0,1,0]        

 cryst.   s( 3) = (    -1          1         -1      )
                  (     0          0         -1      )
                  (     0         -1          0      )

 cart.    s( 3) = ( -1.0000000  0.0000000  0.0000000 )
                  (  0.0000000  1.0000000  0.0000000 )
                  (  0.0000000  0.0000000 -1.0000000 )


      isym =  4     180 deg rotation - cart. axis [1,0,0]        

 cryst.   s( 4) = (     0         -1          0      )
                  (    -1          0          0      )
                  (    -1          1         -1      )

 cart.    s( 4) = (  1.0000000  0.0000000  0.0000000 )
                  (  0.0000000 -1.0000000  0.0000000 )
                  (  0.0000000  0.0000000 -1.0000000 )


      isym =  5     180 deg rotation - cart. axis [1,1,0]        

 cryst.   s( 5) = (     0          0         -1      )
                  (     0         -1          0      )
                  (    -1          0          0      )

 cart.    s( 5) = (  0.0000000  1.0000000  0.0000000 )
                  (  1.0000000  0.0000000  0.0000000 )
                  (  0.0000000  0.0000000 -1.0000000 )


      isym =  6     180 deg rotation - cart. axis [1,-1,0]       

 cryst.   s( 6) = (    -1          0          0      )
                  (    -1          1         -1      )
                  (     0          0         -1      )

 cart.    s( 6) = (  0.0000000 -1.0000000  0.0000000 )
                  ( -1.0000000  0.0000000  0.0000000 )
                  (  0.0000000  0.0000000 -1.0000000 )


      isym =  7      90 deg rotation - cart. axis [0,0,-1]       

 cryst.   s( 7) = (     1         -1          1      )
                  (     1          0          0      )
                  (     0          1          0      )

 cart.    s( 7) = (  0.0000000  1.0000000  0.0000000 )
                  ( -1.0000000  0.0000000  0.0000000 )
                  (  0.0000000  0.0000000  1.0000000 )


      isym =  8      90 deg rotation - cart. axis [0,0,1]        

 cryst.   s( 8) = (     0          1          0      )
                  (     0          0          1      )
                  (     1         -1          1      )

 cart.    s( 8) = (  0.0000000 -1.0000000  0.0000000 )
                  (  1.0000000  0.0000000  0.0000000 )
                  (  0.0000000  0.0000000  1.0000000 )


      isym =  9     180 deg rotation - cart. axis [1,0,1]        

 cryst.   s( 9) = (     1         -1          1      )
                  (     0         -1          0      )
                  (     0          0         -1      )

 cart.    s( 9) = (  0.0000000  0.0000000  1.0000000 )
                  (  0.0000000 -1.0000000  0.0000000 )
                  (  1.0000000  0.0000000  0.0000000 )


      isym = 10     180 deg rotation - cart. axis [-1,0,1]       

 cryst.   s(10) = (    -1          0          0      )
                  (     0          0          1      )
                  (     0          1          0      )

 cart.    s(10) = (  0.0000000  0.0000000 -1.0000000 )
                  (  0.0000000 -1.0000000  0.0000000 )
                  ( -1.0000000  0.0000000  0.0000000 )


      isym = 11      90 deg rotation - cart. axis [0,1,0]        

 cryst.   s(11) = (     0          0         -1      )
                  (     1          0          0      )
                  (     1         -1          1      )

 cart.    s(11) = (  0.0000000  0.0000000  1.0000000 )
                  (  0.0000000  1.0000000  0.0000000 )
                  ( -1.0000000  0.0000000  0.0000000 )


      isym = 12      90 deg rotation - cart. axis [0,-1,0]       

 cryst.   s(12) = (     0          1          0      )
                  (    -1          1         -1      )
                  (    -1          0          0      )

 cart.    s(12) = (  0.0000000  0.0000000 -1.0000000 )
                  (  0.0000000  1.0000000  0.0000000 )
                  (  1.0000000  0.0000000  0.0000000 )


      isym = 13     180 deg rotation - cart. axis [0,1,1]        

 cryst.   s(13) = (     0          1          0      )
                  (     1          0          0      )
                  (     0          0         -1      )

 cart.    s(13) = ( -1.0000000  0.0000000  0.0000000 )
                  (  0.0000000  0.0000000  1.0000000 )
                  (  0.0000000  1.0000000  0.0000000 )


      isym = 14     180 deg rotation - cart. axis [0,1,-1]       

 cryst.   s(14) = (    -1          0          0      )
                  (     0         -1          0      )
                  (     1         -1          1      )

 cart.    s(14) = ( -1.0000000  0.0000000  0.0000000 )
                  (  0.0000000  0.0000000 -1.0000000 )
                  (  0.0000000 -1.0000000  0.0000000 )


      isym = 15      90 deg rotation - cart. axis [-1,0,0]       

 cryst.   s(15) = (     0          0         -1      )
                  (    -1          1         -1      )
                  (     0          1          0      )

 cart.    s(15) = (  1.0000000  0.0000000  0.0000000 )
                  (  0.0000000  0.0000000  1.0000000 )
                  (  0.0000000 -1.0000000  0.0000000 )


      isym = 16      90 deg rotation - cart. axis [1,0,0]        

 cryst.   s(16) = (     1         -1          1      )
                  (     0          0          1      )
                  (    -1          0          0      )

 cart.    s(16) = (  1.0000000  0.0000000  0.0000000 )
                  (  0.0000000  0.0000000 -1.0000000 )
                  (  0.0000000  1.0000000  0.0000000 )


      isym = 17     120 deg rotation - cart. axis [-1,-1,-1]     

 cryst.   s(17) = (     1          0          0      )
                  (     0          0         -1      )
                  (    -1          1         -1      )

 cart.    s(17) = (  0.0000000  1.0000000  0.0000000 )
                  (  0.0000000  0.0000000  1.0000000 )
                  (  1.0000000  0.0000000  0.0000000 )


      isym = 18     120 deg rotation - cart. axis [-1,1,1]       

 cryst.   s(18) = (    -1          1         -1      )
                  (     0          1          0      )
                  (     1          0          0      )

 cart.    s(18) = (  0.0000000 -1.0000000  0.0000000 )
                  (  0.0000000  0.0000000  1.0000000 )
                  ( -1.0000000  0.0000000  0.0000000 )


      isym = 19     120 deg rotation - cart. axis [1,1,-1]       

 cryst.   s(19) = (     0         -1          0      )
                  (     1         -1          1      )
                  (     0          0          1      )

 cart.    s(19) = (  0.0000000  1.0000000  0.0000000 )
                  (  0.0000000  0.0000000 -1.0000000 )
                  ( -1.0000000  0.0000000  0.0000000 )


      isym = 20     120 deg rotation - cart. axis [1,-1,1]       

 cryst.   s(20) = (     0          0          1      )
                  (    -1          0          0      )
                  (     0         -1          0      )

 cart.    s(20) = (  0.0000000 -1.0000000  0.0000000 )
                  (  0.0000000  0.0000000 -1.0000000 )
                  (  1.0000000  0.0000000  0.0000000 )


      isym = 21     120 deg rotation - cart. axis [1,1,1]        

 cryst.   s(21) = (     1          0          0      )
                  (     1         -1          1      )
                  (     0         -1          0      )

 cart.    s(21) = (  0.0000000  0.0000000  1.0000000 )
                  (  1.0000000  0.0000000  0.0000000 )
                  (  0.0000000  1.0000000  0.0000000 )


      isym = 22     120 deg rotation - cart. axis [-1,1,-1]      

 cryst.   s(22) = (     0         -1          0      )
                  (     0          0         -1      )
                  (     1          0          0      )

 cart.    s(22) = (  0.0000000  0.0000000  1.0000000 )
                  ( -1.0000000  0.0000000  0.0000000 )
                  (  0.0000000 -1.0000000  0.0000000 )


      isym = 23     120 deg rotation - cart. axis [1,-1,-1]      

 cryst.   s(23) = (     0          0          1      )
                  (     0          1          0      )
                  (    -1          1         -1      )

 cart.    s(23) = (  0.0000000  0.0000000 -1.0000000 )
                  ( -1.0000000  0.0000000  0.0000000 )
                  (  0.0000000  1.0000000  0.0000000 )


      isym = 24     120 deg rotation - cart. axis [-1,-1,1]      

 cryst.   s(24) = (    -1          1         -1      )
                  (    -1          0          0      )
                  (     0          0          1      )

 cart.    s(24) = (  0.0000000  0.0000000 -1.0000000 )
                  (  1.0000000  0.0000000  0.0000000 )
                  (  0.0000000 -1.0000000  0.0000000 )


      isym = 25     inversion                                    

 cryst.   s(25) = (    -1          0          0      )
                  (     0         -1          0      )
                  (     0          0         -1      )

 cart.    s(25) = ( -1.0000000  0.0000000  0.0000000 )
                  (  0.0000000 -1.0000000  0.0000000 )
                  (  0.0000000  0.0000000 -1.0000000 )


      isym = 26     inv. 180 deg rotation - cart. axis [0,0,1]   

 cryst.   s(26) = (     0          0         -1      )
                  (    -1          1         -1      )
                  (    -1          0          0      )

 cart.    s(26) = (  1.0000000  0.0000000  0.0000000 )
                  (  0.0000000  1.0000000  0.0000000 )
                  (  0.0000000  0.0000000 -1.0000000 )


      isym = 27     inv. 180 deg rotation - cart. axis [0,1,0]   

 cryst.   s(27) = (     1         -1          1      )
                  (     0          0          1      )
                  (     0          1          0      )

 cart.    s(27) = (  1.0000000  0.0000000  0.0000000 )
                  (  0.0000000 -1.0000000  0.0000000 )
                  (  0.0000000  0.0000000  1.0000000 )


      isym = 28     inv. 180 deg rotation - cart. axis [1,0,0]   

 cryst.   s(28) = (     0          1          0      )
                  (     1          0          0      )
                  (     1         -1          1      )

 cart.    s(28) = ( -1.0000000  0.0000000  0.0000000 )
                  (  0.0000000  1.0000000  0.0000000 )
                  (  0.0000000  0.0000000  1.0000000 )


      isym = 29     inv. 180 deg rotation - cart. axis [1,1,0]   

 cryst.   s(29) = (     0          0          1      )
                  (     0          1          0      )
                  (     1          0          0      )

 cart.    s(29) = (  0.0000000 -1.0000000  0.0000000 )
                  ( -1.0000000  0.0000000  0.0000000 )
                  (  0.0000000  0.0000000  1.0000000 )


      isym = 30     inv. 180 deg rotation - cart. axis [1,-1,0]  

 cryst.   s(30) = (     1          0          0      )
                  (     1         -1          1      )
                  (     0          0          1      )

 cart.    s(30) = (  0.0000000  1.0000000  0.0000000 )
                  (  1.0000000  0.0000000  0.0000000 )
                  (  0.0000000  0.0000000  1.0000000 )


      isym = 31     inv.  90 deg rotation - cart. axis [0,0,-1]  

 cryst.   s(31) = (    -1          1         -1      )
                  (    -1          0          0      )
                  (     0         -1          0      )

 cart.    s(31) = (  0.0000000 -1.0000000  0.0000000 )
                  (  1.0000000  0.0000000  0.0000000 )
                  (  0.0000000  0.0000000 -1.0000000 )


      isym = 32     inv.  90 deg rotation - cart. axis [0,0,1]   

 cryst.   s(32) = (     0         -1          0      )
                  (     0          0         -1      )
                  (    -1          1         -1      )

 cart.    s(32) = (  0.0000000  1.0000000  0.0000000 )
                  ( -1.0000000  0.0000000  0.0000000 )
                  (  0.0000000  0.0000000 -1.0000000 )


      isym = 33     inv. 180 deg rotation - cart. axis [1,0,1]   

 cryst.   s(33) = (    -1          1         -1      )
                  (     0          1          0      )
                  (     0          0          1      )

 cart.    s(33) = (  0.0000000  0.0000000 -1.0000000 )
                  (  0.0000000  1.0000000  0.0000000 )
                  ( -1.0000000  0.0000000  0.0000000 )


      isym = 34     inv. 180 deg rotation - cart. axis [-1,0,1]  

 cryst.   s(34) = (     1          0          0      )
                  (     0          0         -1      )
                  (     0         -1          0      )

 cart.    s(34) = (  0.0000000  0.0000000  1.0000000 )
                  (  0.0000000  1.0000000  0.0000000 )
                  (  1.0000000  0.0000000  0.0000000 )


      isym = 35     inv.  90 deg rotation - cart. axis [0,1,0]   

 cryst.   s(35) = (     0          0          1      )
                  (    -1          0          0      )
                  (    -1          1         -1      )

 cart.    s(35) = (  0.0000000  0.0000000 -1.0000000 )
                  (  0.0000000 -1.0000000  0.0000000 )
                  (  1.0000000  0.0000000  0.0000000 )


      isym = 36     inv.  90 deg rotation - cart. axis [0,-1,0]  

 cryst.   s(36) = (     0         -1          0      )
                  (     1         -1          1      )
                  (     1          0          0      )

 cart.    s(36) = (  0.0000000  0.0000000  1.0000000 )
                  (  0.0000000 -1.0000000  0.0000000 )
                  ( -1.0000000  0.0000000  0.0000000 )


      isym = 37     inv. 180 deg rotation - cart. axis [0,1,1]   

 cryst.   s(37) = (     0         -1          0      )
                  (    -1          0          0      )
                  (     0          0          1      )

 cart.    s(37) = (  1.0000000  0.0000000  0.0000000 )
                  (  0.0000000  0.0000000 -1.0000000 )
                  (  0.0000000 -1.0000000  0.0000000 )


      isym = 38     inv. 180 deg rotation - cart. axis [0,1,-1]  

 cryst.   s(38) = (     1          0          0      )
                  (     0          1          0      )
                  (    -1          1         -1      )

 cart.    s(38) = (  1.0000000  0.0000000  0.0000000 )
                  (  0.0000000  0.0000000  1.0000000 )
                  (  0.0000000  1.0000000  0.0000000 )


      isym = 39     inv.  90 deg rotation - cart. axis [-1,0,0]  

 cryst.   s(39) = (     0          0          1      )
                  (     1         -1          1      )
                  (     0         -1          0      )

 cart.    s(39) = ( -1.0000000  0.0000000  0.0000000 )
                  (  0.0000000  0.0000000 -1.0000000 )
                  (  0.0000000  1.0000000  0.0000000 )


      isym = 40     inv.  90 deg rotation - cart. axis [1,0,0]   

 cryst.   s(40) = (    -1          1         -1      )
                  (     0          0         -1      )
                  (     1          0          0      )

 cart.    s(40) = ( -1.0000000  0.0000000  0.0000000 )
                  (  0.0000000  0.0000000  1.0000000 )
                  (  0.0000000 -1.0000000  0.0000000 )


      isym = 41     inv. 120 deg rotation - cart. axis [-1,-1,-1]

 cryst.   s(41) = (    -1          0          0      )
                  (     0          0          1      )
                  (     1         -1          1      )

 cart.    s(41) = (  0.0000000 -1.0000000  0.0000000 )
                  (  0.0000000  0.0000000 -1.0000000 )
                  ( -1.0000000  0.0000000  0.0000000 )


      isym = 42     inv. 120 deg rotation - cart. axis [-1,1,1]  

 cryst.   s(42) = (     1         -1          1      )
                  (     0         -1          0      )
                  (    -1          0          0      )

 cart.    s(42) = (  0.0000000  1.0000000  0.0000000 )
                  (  0.0000000  0.0000000 -1.0000000 )
                  (  1.0000000  0.0000000  0.0000000 )


      isym = 43     inv. 120 deg rotation - cart. axis [1,1,-1]  

 cryst.   s(43) = (     0          1          0      )
                  (    -1          1         -1      )
                  (     0          0         -1      )

 cart.    s(43) = (  0.0000000 -1.0000000  0.0000000 )
                  (  0.0000000  0.0000000  1.0000000 )
                  (  1.0000000  0.0000000  0.0000000 )


      isym = 44     inv. 120 deg rotation - cart. axis [1,-1,1]  

 cryst.   s(44) = (     0          0         -1      )
                  (     1          0          0      )
                  (     0          1          0      )

 cart.    s(44) = (  0.0000000  1.0000000  0.0000000 )
                  (  0.0000000  0.0000000  1.0000000 )
                  ( -1.0000000  0.0000000  0.0000000 )


      isym = 45     inv. 120 deg rotation - cart. axis [1,1,1]   

 cryst.   s(45) = (    -1          0          0      )
                  (    -1          1         -1      )
                  (     0          1          0      )

 cart.    s(45) = (  0.0000000  0.0000000 -1.0000000 )
                  ( -1.0000000  0.0000000  0.0000000 )
                  (  0.0000000 -1.0000000  0.0000000 )


      isym = 46     inv. 120 deg rotation - cart. axis [-1,1,-1] 

 cryst.   s(46) = (     0          1          0      )
                  (     0          0          1      )
                  (    -1          0          0      )

 cart.    s(46) = (  0.0000000  0.0000000 -1.0000000 )
                  (  1.0000000  0.0000000  0.0000000 )
                  (  0.0000000  1.0000000  0.0000000 )


      isym = 47     inv. 120 deg rotation - cart. axis [1,-1,-1] 

 cryst.   s(47) = (     0          0         -1      )
                  (     0         -1          0      )
                  (     1         -1          1      )

 cart.    s(47) = (  0.0000000  0.0000000  1.0000000 )
                  (  1.0000000  0.0000000  0.0000000 )
                  (  0.0000000 -1.0000000  0.0000000 )


      isym = 48     inv. 120 deg rotation - cart. axis [-1,-1,1] 

 cryst.   s(48) = (     1         -1          1      )
                  (     1          0          0      )
                  (     0          0         -1      )

 cart.    s(48) = (  0.0000000  0.0000000  1.0000000 )
                  ( -1.0000000  0.0000000  0.0000000 )
                  (  0.0000000  1.0000000  0.0000000 )


     point group O_h (m-3m) 
     there are 10 classes
     the character table:

       E     8C3   6C2'  6C4   3C2   i     6S4   8S6   3s_h  6s_d 
A_1g   1.00  1.00  1.00  1.00  1.00  1.00  1.00  1.00  1.00  1.00
A_2g   1.00  1.00 -1.00 -1.00  1.00  1.00 -1.00  1.00  1.00 -1.00
E_g    2.00 -1.00  0.00  0.00  2.00  2.00  0.00 -1.00  2.00  0.00
T_1g   3.00  0.00 -1.00  1.00 -1.00  3.00  1.00  0.00 -1.00 -1.00
T_2g   3.00  0.00  1.00 -1.00 -1.00  3.00 -1.00  0.00 -1.00  1.00
A_1u   1.00  1.00  1.00  1.00  1.00 -1.00 -1.00 -1.00 -1.00 -1.00
A_2u   1.00  1.00 -1.00 -1.00  1.00 -1.00  1.00 -1.00 -1.00  1.00
E_u    2.00 -1.00  0.00  0.00  2.00 -2.00  0.00  1.00 -2.00  0.00
T_1u   3.00  0.00 -1.00  1.00 -1.00 -3.00 -1.00  0.00  1.00  1.00
T_2u   3.00  0.00  1.00 -1.00 -1.00 -3.00  1.00  0.00  1.00 -1.00

     the symmetry operations in each class:
     E        1
     3C2      2    4    3
     6C2'     5    6   14   13   10    9
     6C4      7    8   15   16   12   11
     8C3     17   19   20   18   24   21   22   23
     i       25
     3s_h    26   28   27
     6s_d    29   30   38   37   34   33
     6S4     31   32   39   40   36   35
     8S6     41   43   44   42   48   45   46   47

   Cartesian axes

     site n.     atom                  positions (alat units)
         1           Ag  tau(   1) = (   0.0000000   0.0000000   0.0000000  )

   Crystallographic axes

     site n.     atom                  positions (cryst. coord.)
         1           Ag  tau(   1) = (  0.0000000  0.0000000  0.0000000  )

     number of k points=    68  Marzari-Vanderbilt smearing, width (Ry)=  0.0200
                       cart. coord. in units 2pi/alat
        k(    1) = (   0.0000000   0.0000000   0.0833333), wk =   0.0069444
        k(    2) = (   0.0000000  -0.0833333   0.1666667), wk =   0.0277778
        k(    3) = (   0.0000000  -0.1666667   0.2500000), wk =   0.0277778
        k(    4) = (   0.0000000  -0.2500000   0.3333333), wk =   0.0277778
        k(    5) = (   0.0000000  -0.3333333   0.4166667), wk =   0.0277778
        k(    6) = (   0.0000000  -0.4166667   0.5000000), wk =   0.0277778
        k(    7) = (  -0.0833333   0.0833333   0.0833333), wk =   0.0092593
        k(    8) = (  -0.0833333  -0.0833333   0.2500000), wk =   0.0277778
        k(    9) = (  -0.0833333  -0.1666667   0.3333333), wk =   0.0555556
        k(   10) = (  -0.0833333  -0.2500000   0.4166667), wk =   0.0555556
        k(   11) = (  -0.0833333  -0.3333333   0.5000000), wk =   0.0555556
        k(   12) = (  -0.0833333   0.5833333  -0.4166667), wk =   0.0277778
        k(   13) = (  -0.1666667   0.1666667   0.0833333), wk =   0.0277778
        k(   14) = (  -0.1666667  -0.1666667   0.4166667), wk =   0.0277778
        k(   15) = (  -0.1666667  -0.2500000   0.5000000), wk =   0.0555556
        k(   16) = (  -0.1666667   0.6666667  -0.4166667), wk =   0.0555556
        k(   17) = (  -0.2500000   0.2500000   0.0833333), wk =   0.0277778
        k(   18) = (  -0.2500000   0.1666667   0.1666667), wk =   0.0277778
        k(   19) = (  -0.2500000   0.7500000  -0.4166667), wk =   0.0277778
        k(   20) = (  -0.2500000   0.6666667  -0.3333333), wk =   0.0277778
        k(   21) = (  -0.3333333   0.3333333   0.0833333), wk =   0.0277778
        k(   22) = (  -0.3333333   0.2500000   0.1666667), wk =   0.0555556
        k(   23) = (  -0.4166667   0.4166667   0.0833333), wk =   0.0277778
        k(   24) = (  -0.4166667   0.3333333   0.1666667), wk =   0.0555556
        k(   25) = (  -0.4166667   0.2500000   0.2500000), wk =   0.0277778
        k(   26) = (   0.5000000  -0.5000000   0.0833333), wk =   0.0138889
        k(   27) = (   0.5000000  -0.5833333   0.1666667), wk =   0.0555556
        k(   28) = (   0.5000000  -0.6666667   0.2500000), wk =   0.0555556
        k(   29) = (   0.4166667  -0.5833333   0.2500000), wk =   0.0277778
        k(   30) = (   0.4166667  -0.6666667   0.3333333), wk =   0.0277778
        k(   31) = (   0.0000000   0.0000000   0.2500000), wk =   0.0069444
        k(   32) = (   0.0000000  -0.0833333   0.3333333), wk =   0.0277778
        k(   33) = (   0.0000000  -0.1666667   0.4166667), wk =   0.0277778
        k(   34) = (   0.0000000  -0.2500000   0.5000000), wk =   0.0277778
        k(   35) = (   0.0000000  -0.3333333   0.5833333), wk =   0.0277778
        k(   36) = (  -0.0833333  -0.0833333   0.4166667), wk =   0.0277778
        k(   37) = (  -0.0833333  -0.1666667   0.5000000), wk =   0.0555556
        k(   38) = (  -0.0833333  -0.2500000   0.5833333), wk =   0.0555556
        k(   39) = (  -0.0833333   0.6666667  -0.3333333), wk =   0.0277778
        k(   40) = (  -0.1666667  -0.1666667   0.5833333), wk =   0.0277778
        k(   41) = (  -0.1666667   0.7500000  -0.3333333), wk =   0.0555556
        k(   42) = (  -0.2500000   0.2500000   0.2500000), wk =   0.0092593
        k(   43) = (  -0.2500000   0.7500000  -0.2500000), wk =   0.0092593
        k(   44) = (  -0.3333333   0.3333333   0.2500000), wk =   0.0277778
        k(   45) = (   0.5833333  -0.5833333   0.2500000), wk =   0.0277778
        k(   46) = (   0.5833333  -0.6666667   0.3333333), wk =   0.0277778
        k(   47) = (   0.5000000  -0.5000000   0.2500000), wk =   0.0138889
        k(   48) = (   0.5000000  -0.5833333   0.3333333), wk =   0.0555556
        k(   49) = (   0.4166667  -0.5833333   0.4166667), wk =   0.0092593
        k(   50) = (   0.0000000   0.0000000   0.4166667), wk =   0.0069444
        k(   51) = (   0.0000000  -0.0833333   0.5000000), wk =   0.0277778
        k(   52) = (   0.0000000  -0.1666667   0.5833333), wk =   0.0277778
        k(   53) = (   0.0000000  -0.2500000   0.6666667), wk =   0.0277778
        k(   54) = (  -0.0833333  -0.0833333   0.5833333), wk =   0.0277778
        k(   55) = (  -0.0833333  -0.1666667   0.6666667), wk =   0.0555556
        k(   56) = (  -0.0833333   0.7500000  -0.2500000), wk =   0.0277778
        k(   57) = (  -0.1666667   0.8333333  -0.2500000), wk =   0.0277778
        k(   58) = (   0.5833333  -0.5833333   0.4166667), wk =   0.0092593
        k(   59) = (   0.5000000  -0.5000000   0.4166667), wk =   0.0138889
        k(   60) = (   0.0000000   0.0000000   0.5833333), wk =   0.0069444
        k(   61) = (   0.0000000  -0.0833333   0.6666667), wk =   0.0277778
        k(   62) = (   0.0000000  -0.1666667   0.7500000), wk =   0.0277778
        k(   63) = (  -0.0833333  -0.0833333   0.7500000), wk =   0.0277778
        k(   64) = (  -0.0833333   0.8333333  -0.1666667), wk =   0.0277778
        k(   65) = (   0.0000000   0.0000000   0.7500000), wk =   0.0069444
        k(   66) = (   0.0000000  -0.0833333   0.8333333), wk =   0.0277778
        k(   67) = (  -0.0833333   0.9166667  -0.0833333), wk =   0.0092593
        k(   68) = (   0.0000000   0.0000000   0.9166667), wk =   0.0069444

                       cryst. coord.
        k(    1) = (   0.0416667   0.0416667   0.0416667), wk =   0.0069444
        k(    2) = (   0.0416667   0.0416667   0.1250000), wk =   0.0277778
        k(    3) = (   0.0416667   0.0416667   0.2083333), wk =   0.0277778
        k(    4) = (   0.0416667   0.0416667   0.2916667), wk =   0.0277778
        k(    5) = (   0.0416667   0.0416667   0.3750000), wk =   0.0277778
        k(    6) = (   0.0416667   0.0416667   0.4583333), wk =   0.0277778
        k(    7) = (   0.0416667   0.1250000   0.0416667), wk =   0.0092593
        k(    8) = (   0.0416667   0.1250000   0.2083333), wk =   0.0277778
        k(    9) = (   0.0416667   0.1250000   0.2916667), wk =   0.0555556
        k(   10) = (   0.0416667   0.1250000   0.3750000), wk =   0.0555556
        k(   11) = (   0.0416667   0.1250000   0.4583333), wk =   0.0555556
        k(   12) = (   0.0416667   0.1250000  -0.4583333), wk =   0.0277778
        k(   13) = (   0.0416667   0.2083333   0.0416667), wk =   0.0277778
        k(   14) = (   0.0416667   0.2083333   0.3750000), wk =   0.0277778
        k(   15) = (   0.0416667   0.2083333   0.4583333), wk =   0.0555556
        k(   16) = (   0.0416667   0.2083333  -0.4583333), wk =   0.0555556
        k(   17) = (   0.0416667   0.2916667   0.0416667), wk =   0.0277778
        k(   18) = (   0.0416667   0.2916667   0.1250000), wk =   0.0277778
        k(   19) = (   0.0416667   0.2916667  -0.4583333), wk =   0.0277778
        k(   20) = (   0.0416667   0.2916667  -0.3750000), wk =   0.0277778
        k(   21) = (   0.0416667   0.3750000   0.0416667), wk =   0.0277778
        k(   22) = (   0.0416667   0.3750000   0.1250000), wk =   0.0555556
        k(   23) = (   0.0416667   0.4583333   0.0416667), wk =   0.0277778
        k(   24) = (   0.0416667   0.4583333   0.1250000), wk =   0.0555556
        k(   25) = (   0.0416667   0.4583333   0.2083333), wk =   0.0277778
        k(   26) = (   0.0416667  -0.4583333   0.0416667), wk =   0.0138889
        k(   27) = (   0.0416667  -0.4583333   0.1250000), wk =   0.0555556
        k(   28) = (   0.0416667  -0.4583333   0.2083333), wk =   0.0555556
        k(   29) = (   0.0416667  -0.3750000   0.2083333), wk =   0.0277778
        k(   30) = (   0.0416667  -0.3750000   0.2916667), wk =   0.0277778
        k(   31) = (   0.1250000   0.1250000   0.1250000), wk =   0.0069444
        k(   32) = (   0.1250000   0.1250000   0.2083333), wk =   0.0277778
        k(   33) = (   0.1250000   0.1250000   0.2916667), wk =   0.0277778
        k(   34) = (   0.1250000   0.1250000   0.3750000), wk =   0.0277778
        k(   35) = (   0.1250000   0.1250000   0.4583333), wk =   0.0277778
        k(   36) = (   0.1250000   0.2083333   0.2916667), wk =   0.0277778
        k(   37) = (   0.1250000   0.2083333   0.3750000), wk =   0.0555556
        k(   38) = (   0.1250000   0.2083333   0.4583333), wk =   0.0555556
        k(   39) = (   0.1250000   0.2083333  -0.4583333), wk =   0.0277778
        k(   40) = (   0.1250000   0.2916667   0.4583333), wk =   0.0277778
        k(   41) = (   0.1250000   0.2916667  -0.4583333), wk =   0.0555556
        k(   42) = (   0.1250000   0.3750000   0.1250000), wk =   0.0092593
        k(   43) = (   0.1250000   0.3750000  -0.3750000), wk =   0.0092593
        k(   44) = (   0.1250000   0.4583333   0.1250000), wk =   0.0277778
        k(   45) = (   0.1250000  -0.4583333   0.1250000), wk =   0.0277778
        k(   46) = (   0.1250000  -0.4583333   0.2083333), wk =   0.0277778
        k(   47) = (   0.1250000  -0.3750000   0.1250000), wk =   0.0138889
        k(   48) = (   0.1250000  -0.3750000   0.2083333), wk =   0.0555556
        k(   49) = (   0.1250000  -0.2916667   0.2916667), wk =   0.0092593
        k(   50) = (   0.2083333   0.2083333   0.2083333), wk =   0.0069444
        k(   51) = (   0.2083333   0.2083333   0.2916667), wk =   0.0277778
        k(   52) = (   0.2083333   0.2083333   0.3750000), wk =   0.0277778
        k(   53) = (   0.2083333   0.2083333   0.4583333), wk =   0.0277778
        k(   54) = (   0.2083333   0.2916667   0.3750000), wk =   0.0277778
        k(   55) = (   0.2083333   0.2916667   0.4583333), wk =   0.0555556
        k(   56) = (   0.2083333   0.2916667  -0.4583333), wk =   0.0277778
        k(   57) = (   0.2083333   0.3750000  -0.4583333), wk =   0.0277778
        k(   58) = (   0.2083333  -0.3750000   0.2083333), wk =   0.0092593
        k(   59) = (   0.2083333  -0.2916667   0.2083333), wk =   0.0138889
        k(   60) = (   0.2916667   0.2916667   0.2916667), wk =   0.0069444
        k(   61) = (   0.2916667   0.2916667   0.3750000), wk =   0.0277778
        k(   62) = (   0.2916667   0.2916667   0.4583333), wk =   0.0277778
        k(   63) = (   0.2916667   0.3750000   0.4583333), wk =   0.0277778
        k(   64) = (   0.2916667   0.3750000  -0.4583333), wk =   0.0277778
        k(   65) = (   0.3750000   0.3750000   0.3750000), wk =   0.0069444
        k(   66) = (   0.3750000   0.3750000   0.4583333), wk =   0.0277778
        k(   67) = (   0.3750000   0.4583333  -0.4583333), wk =   0.0092593
        k(   68) = (   0.4583333   0.4583333   0.4583333), wk =   0.0069444

     Dense  grid:     5089 G-vectors     FFT dimensions: (  24,  24,  24)

     Largest allocated arrays     est. size (Mb)     dimensions
        Kohn-Sham Wavefunctions         0.10 Mb     (     652,   10)
        NL pseudopotentials             0.18 Mb     (     652,   18)
        Each V/rho on FFT grid          0.21 Mb     (   13824)
        Each G-vector array             0.04 Mb     (    5089)
        G-vector shells                 0.00 Mb     (      85)
     Largest temporary arrays     est. size (Mb)     dimensions
        Auxiliary wavefunctions         0.40 Mb     (     652,   40)
        Each subspace H/S matrix        0.02 Mb     (      40,   40)
        Each <psi_i|beta_j> matrix      0.00 Mb     (      18,   10)
        Arrays for rho mixing           1.69 Mb     (   13824,    8)

     Initial potential from superposition of free atoms

     starting charge   10.99960, renormalised to   11.00000
     Starting wfc are    9 randomized atomic wfcs +    1 random wfc

     total cpu time spent up to now is        8.2 secs

     per-process dynamical memory:    15.8 Mb

     Self-consistent Calculation

     iteration #  1     ecut=    30.00 Ry     beta=0.70
     Davidson diagonalization with overlap
     ethr =  1.00E-02,  avg # of iterations =  3.6

     Threshold (ethr) on eigenvalues was too large:
     Diagonalizing with lowered threshold

     Davidson diagonalization with overlap
     ethr =  7.50E-05,  avg # of iterations =  2.5

     total cpu time spent up to now is       24.8 secs

     total energy              =     -84.10126321 Ry
     Harris-Foulkes estimate   =     -84.10398671 Ry
     estimated scf accuracy    <       0.00779828 Ry

     iteration #  2     ecut=    30.00 Ry     beta=0.70
     Davidson diagonalization with overlap
     ethr =  7.09E-05,  avg # of iterations =  2.3

     total cpu time spent up to now is       32.4 secs

     total energy              =     -84.10248243 Ry
     Harris-Foulkes estimate   =     -84.10509293 Ry
     estimated scf accuracy    <       0.00494689 Ry

     iteration #  3     ecut=    30.00 Ry     beta=0.70
     Davidson diagonalization with overlap
     ethr =  4.50E-05,  avg # of iterations =  2.1

     total cpu time spent up to now is       40.5 secs

     total energy              =     -84.10380222 Ry
     Harris-Foulkes estimate   =     -84.10379479 Ry
     estimated scf accuracy    <       0.00020825 Ry

     iteration #  4     ecut=    30.00 Ry     beta=0.70
     Davidson diagonalization with overlap
     ethr =  1.89E-06,  avg # of iterations =  2.9

     total cpu time spent up to now is       47.6 secs

     total energy              =     -84.10383454 Ry
     Harris-Foulkes estimate   =     -84.10383338 Ry
     estimated scf accuracy    <       0.00000113 Ry

     iteration #  5     ecut=    30.00 Ry     beta=0.70
     Davidson diagonalization with overlap
     ethr =  1.03E-08,  avg # of iterations =  2.4

     total cpu time spent up to now is       54.5 secs

     End of self-consistent calculation

          k = 0.0000 0.0000 0.0833 (   635 PWs)   bands (ev):

     0.1143   0.5828   0.5828   0.6039   0.9665   0.9761  17.2788  17.4393
    17.4393  18.3618

     occupation numbers 
     1.0000   1.0000   1.0000   1.0000   1.0000   1.0000   0.0000   0.0000
     0.0000   0.0000

          k = 0.0000-0.0833 0.1667 (   639 PWs)   bands (ev):

     0.3490   0.5564   0.6229   0.6662   0.9225   0.9877  15.2203  16.4361
    16.6635  17.9512

     occupation numbers 
     1.0000   1.0000   1.0000   1.0000   1.0000   1.0000   0.0000   0.0000
     0.0000   0.0000

          k = 0.0000-0.1667 0.2500 (   637 PWs)   bands (ev):

     0.4657   0.5061   0.8104   0.8949   0.9268   1.1411  12.7335  15.3108
    15.7324  17.7092

     occupation numbers 
     1.0000   1.0000   1.0000   1.0000   1.0000   1.0000   0.0000   0.0000
     0.0000   0.0000

          k = 0.0000-0.2500 0.3333 (   637 PWs)   bands (ev):

     0.3891   0.4634   0.9017   0.9785   1.0026   1.9544  10.3585  14.3261
    14.9495  17.4154

     occupation numbers 
     1.0000   1.0000   1.0000   1.0000   1.0000   1.0000   0.0000   0.0000
     0.0000   0.0000

          k = 0.0000-0.3333 0.4167 (   647 PWs)   bands (ev):

     0.3012   0.4176   0.9067   0.9735   1.1331   3.1051   8.1823  13.5980
    14.3976  17.2120

     occupation numbers 
     1.0000   1.0000   1.0000   1.0000   1.0000   1.0000   0.0000   0.0000
     0.0000   0.0000

          k = 0.0000-0.4167 0.5000 (   639 PWs)   bands (ev):

     0.2650   0.4065   0.9204   0.9978   1.2460   4.5375   6.2402  13.2122
    14.1138  17.1203

     occupation numbers 
     1.0000   1.0000   1.0000   1.0000   1.0000   0.0050   0.0000   0.0000
     0.0000   0.0000

          k =-0.0833 0.0833 0.0833 (   636 PWs)   bands (ev):

     0.2386   0.5676   0.5676   0.6713   0.9644   0.9644  16.1307  16.7153
    16.7153  18.7010

     occupation numbers 
     1.0000   1.0000   1.0000   1.0000   1.0000   1.0000   0.0000   0.0000
     0.0000   0.0000

          k =-0.0833-0.0833 0.2500 (   636 PWs)   bands (ev):

     0.4898   0.5955   0.6543   0.8634   0.8929   1.0999  13.8053  14.5241
    16.1972  17.5695

     occupation numbers 
     1.0000   1.0000   1.0000   1.0000   1.0000   1.0000   0.0000   0.0000
     0.0000   0.0000

          k =-0.0833-0.1667 0.3333 (   635 PWs)   bands (ev):

     0.4599   0.5597   0.8233   0.8738   0.9662   1.7037  11.6098  13.3518
    15.4213  17.4709

     occupation numbers 
     1.0000   1.0000   1.0000   1.0000   1.0000   1.0000   0.0000   0.0000
     0.0000   0.0000

          k =-0.0833-0.2500 0.4167 (   643 PWs)   bands (ev):

     0.3855   0.4878   0.8784   0.9227   1.0378   2.6939   9.3788  12.5792
    14.7272  17.2800

     occupation numbers 
     1.0000   1.0000   1.0000   1.0000   1.0000   1.0000   0.0000   0.0000
     0.0000   0.0000

          k =-0.0833-0.3333 0.5000 (   640 PWs)   bands (ev):

     0.3270   0.4546   0.9092   0.9397   1.1670   3.9792   7.3398  12.0946
    14.2812  17.1441

     occupation numbers 
     1.0000   1.0000   1.0000   1.0000   1.0000   0.8371   0.0000   0.0000
     0.0000   0.0000

          k =-0.0833 0.5833-0.4167 (   638 PWs)   bands (ev):

     0.3082   0.4459   0.9198   0.9335   1.2302   5.5281   5.5387  11.9275
    14.1289  17.0985

     occupation numbers 
     1.0000   1.0000   1.0000   1.0000   1.0000   0.0000   0.0000   0.0000
     0.0000   0.0000

          k =-0.1667 0.1667 0.0833 (   641 PWs)   bands (ev):

     0.4553   0.5228   0.6312   0.8840   0.9508   0.9609  13.9339  15.3320
    15.7157  18.5926

     occupation numbers 
     1.0000   1.0000   1.0000   1.0000   1.0000   1.0000   0.0000   0.0000
     0.0000   0.0000

          k =-0.1667-0.1667 0.4167 (   638 PWs)   bands (ev):

     0.4350   0.5773   0.8098   0.8841   1.0081   2.5703  10.3972  11.4372
    14.9944  17.6136

     occupation numbers 
     1.0000   1.0000   1.0000   1.0000   1.0000   1.0000   0.0000   0.0000
     0.0000   0.0000

          k =-0.1667-0.2500 0.5000 (   635 PWs)   bands (ev):

     0.4087   0.5392   0.8440   0.9257   1.0834   3.7127   8.6087  10.5126
    14.5650  17.5958

     occupation numbers 
     1.0000   1.0000   1.0000   1.0000   1.0000   1.0775   0.0000   0.0000
     0.0000   0.0000

          k =-0.1667 0.6667-0.4167 (   632 PWs)   bands (ev):

     0.3825   0.5219   0.8481   0.9611   1.1551   5.1049   6.7779  10.1454
    14.3201  17.5063

     occupation numbers 
     1.0000   1.0000   1.0000   1.0000   1.0000   0.0000   0.0000   0.0000
     0.0000   0.0000

          k =-0.2500 0.2500 0.0833 (   637 PWs)   bands (ev):

     0.4395   0.4765   0.8456   0.9191   0.9841   1.5553  11.5238  14.2821
    14.8505  18.1956

     occupation numbers 
     1.0000   1.0000   1.0000   1.0000   1.0000   1.0000   0.0000   0.0000
     0.0000   0.0000

          k =-0.2500 0.1667 0.1667 (   630 PWs)   bands (ev):

     0.4840   0.5625   0.6945   0.9323   0.9775   1.4628  12.4931  13.4712
    14.6097  19.3722

     occupation numbers 
     1.0000   1.0000   1.0000   1.0000   1.0000   1.0000   0.0000   0.0000
     0.0000   0.0000

          k =-0.2500 0.7500-0.4167 (   636 PWs)   bands (ev):

     0.4103   0.5753   0.7758   0.9690   1.1009   4.9616   7.8840   8.8369
    14.3836  18.2470

     occupation numbers 
     1.0000   1.0000   1.0000   1.0000   1.0000   0.0000   0.0000   0.0000
     0.0000   0.0000

          k =-0.2500 0.6667-0.3333 (   636 PWs)   bands (ev):

     0.4042   0.6045   0.7310   1.0075   1.1011   6.1259   6.8164   8.3497
    14.3089  18.3453

     occupation numbers 
     1.0000   1.0000   1.0000   1.0000   1.0000   0.0000   0.0000   0.0000
     0.0000   0.0000

          k =-0.3333 0.3333 0.0833 (   638 PWs)   bands (ev):

     0.3627   0.4338   0.9232   1.0015   1.0286   2.5489   9.2612  13.4613
    14.1948  17.8635

     occupation numbers 
     1.0000   1.0000   1.0000   1.0000   1.0000   1.0000   0.0000   0.0000
     0.0000   0.0000

          k =-0.3333 0.2500 0.1667 (   638 PWs)   bands (ev):

     0.4325   0.5029   0.8295   0.9305   0.9863   2.3043  10.4678  12.3251
    13.8294  18.8974

     occupation numbers 
     1.0000   1.0000   1.0000   1.0000   1.0000   1.0000   0.0000   0.0000
     0.0000   0.0000

          k =-0.4167 0.4167 0.0833 (   636 PWs)   bands (ev):

     0.2991   0.4123   0.9401   1.0016   1.1762   3.8365   7.2097  12.9307
    13.7875  17.6695

     occupation numbers 
     1.0000   1.0000   1.0000   1.0000   1.0000   1.0585   0.0000   0.0000
     0.0000   0.0000

          k =-0.4167 0.3333 0.1667 (   639 PWs)   bands (ev):

     0.3731   0.4526   0.9422   0.9506   1.0377   3.4390   8.3933  11.6578
    13.2934  18.5972

     occupation numbers 
     1.0000   1.0000   1.0000   1.0000   1.0000   1.0076   0.0000   0.0000
     0.0000   0.0000

          k =-0.4167 0.2500 0.2500 (   636 PWs)   bands (ev):

     0.4117   0.5374   0.8397   0.9495   1.0099   3.3165   9.3694  10.5446
    13.1877  19.5373

     occupation numbers 
     1.0000   1.0000   1.0000   1.0000   1.0000   1.0012   0.0000   0.0000
     0.0000   0.0000

          k = 0.5000-0.5000 0.0833 (   634 PWs)   bands (ev):

     0.2827   0.3995   0.9381   1.0284   1.2196   5.3461   5.4458  12.7469
    13.6487  17.6091

     occupation numbers 
     1.0000   1.0000   1.0000   1.0000   1.0000   0.0000   0.0000   0.0000
     0.0000   0.0000

          k = 0.5000-0.5833 0.1667 (   639 PWs)   bands (ev):

     0.3377   0.4243   0.9494   0.9763   1.1208   4.8426   6.5046  11.3222
    13.0183  18.4417

     occupation numbers 
     1.0000   1.0000   1.0000   1.0000   1.0000   0.0000   0.0000   0.0000
     0.0000   0.0000

          k = 0.5000-0.6667 0.2500 (   638 PWs)   bands (ev):

     0.3776   0.5314   0.8658   0.9696   1.0500   4.5710   7.7783   9.7109
    12.7980  19.4520

     occupation numbers 
     1.0000   1.0000   1.0000   1.0000   1.0000   0.0029   0.0000   0.0000
     0.0000   0.0000

          k = 0.4167-0.5833 0.2500 (   638 PWs)   bands (ev):

     0.3669   0.5222   0.8694   0.9843   1.0773   5.8436   6.3241   9.4950
    12.6672  19.3771

     occupation numbers 
     1.0000   1.0000   1.0000   1.0000   1.0000   0.0000   0.0000   0.0000
     0.0000   0.0000

          k = 0.4167-0.6667 0.3333 (   639 PWs)   bands (ev):

     0.3741   0.6211   0.7696   1.0012   1.0449   5.8342   7.3459   8.1304
    12.5568  20.3636

     occupation numbers 
     1.0000   1.0000   1.0000   1.0000   1.0000   0.0000   0.0000   0.0000
     0.0000   0.0000

          k = 0.0000 0.0000 0.2500 (   639 PWs)   bands (ev):

     0.5765   0.6084   0.6084   0.6836   0.8593   1.0800  15.0695  15.3967
    15.3967  16.4945

     occupation numbers 
     1.0000   1.0000   1.0000   1.0000   1.0000   1.0000   0.0000   0.0000
     0.0000   0.0000

          k = 0.0000-0.0833 0.3333 (   636 PWs)   bands (ev):

     0.5829   0.5952   0.8049   0.8063   0.8305   1.4426  12.9164  14.3138
    14.7579  16.3890

     occupation numbers 
     1.0000   1.0000   1.0000   1.0000   1.0000   1.0000   0.0000   0.0000
     0.0000   0.0000

          k = 0.0000-0.1667 0.4167 (   641 PWs)   bands (ev):

     0.4847   0.5538   0.8015   0.8883   0.9709   2.2537  10.5916  13.3864
    14.1300  16.9609

     occupation numbers 
     1.0000   1.0000   1.0000   1.0000   1.0000   1.0000   0.0000   0.0000
     0.0000   0.0000

          k = 0.0000-0.2500 0.5000 (   630 PWs)   bands (ev):

     0.4016   0.5336   0.8432   0.9332   1.1408   3.3960   8.4408  12.7067
    13.6786  17.6928

     occupation numbers 
     1.0000   1.0000   1.0000   1.0000   1.0000   1.0043   0.0000   0.0000
     0.0000   0.0000

          k = 0.0000-0.3333 0.5833 (   634 PWs)   bands (ev):

     0.3430   0.5041   0.8695   0.9188   1.2295   4.8206   6.5075  12.3434
    13.4448  18.1279

     occupation numbers 
     1.0000   1.0000   1.0000   1.0000   1.0000   0.0000   0.0000   0.0000
     0.0000   0.0000

          k =-0.0833-0.0833 0.4167 (   636 PWs)   bands (ev):

     0.5587   0.6419   0.7828   0.7917   0.9368   2.1190  11.6760  12.4932
    14.7083  15.9377

     occupation numbers 
     1.0000   1.0000   1.0000   1.0000   1.0000   1.0000   0.0000   0.0000
     0.0000   0.0000

          k =-0.0833-0.1667 0.5000 (   640 PWs)   bands (ev):

     0.4850   0.5823   0.7693   0.8702   1.0479   3.1103   9.7144  11.5124
    14.3915  16.3920

     occupation numbers 
     1.0000   1.0000   1.0000   1.0000   1.0000   1.0000   0.0000   0.0000
     0.0000   0.0000

          k =-0.0833-0.2500 0.5833 (   635 PWs)   bands (ev):

     0.4268   0.5649   0.7794   0.9077   1.1672   4.3883   7.7287  11.0119
    14.0663  17.2292

     occupation numbers 
     1.0000   1.0000   1.0000   1.0000   1.0000   0.0418   0.0000   0.0000
     0.0000   0.0000

          k =-0.0833 0.6667-0.3333 (   640 PWs)   bands (ev):

     0.3901   0.5496   0.7725   0.9162   1.2029   5.7938   6.0772  10.8424
    13.9464  17.6804

     occupation numbers 
     1.0000   1.0000   1.0000   1.0000   1.0000   0.0000   0.0000   0.0000
     0.0000   0.0000

          k =-0.1667-0.1667 0.5833 (   639 PWs)   bands (ev):

     0.5007   0.5356   0.7461   0.9172   1.1110   4.2432   8.8140   9.7563
    14.8067  16.3364

     occupation numbers 
     1.0000   1.0000   1.0000   1.0000   1.0000   0.1908   0.0000   0.0000
     0.0000   0.0000

          k =-0.1667 0.7500-0.3333 (   640 PWs)   bands (ev):

     0.4743   0.5564   0.6850   0.9771   1.1475   5.5999   7.3062   9.1157
    14.8614  16.9841

     occupation numbers 
     1.0000   1.0000   1.0000   1.0000   1.0000   0.0000   0.0000   0.0000
     0.0000   0.0000

          k =-0.2500 0.2500 0.2500 (   640 PWs)   bands (ev):

     0.4961   0.4961   0.7289   0.9547   0.9547   2.1862  11.1843  12.6059
    12.6059  20.6091

     occupation numbers 
     1.0000   1.0000   1.0000   1.0000   1.0000   1.0000   0.0000   0.0000
     0.0000   0.0000

          k =-0.2500 0.7500-0.2500 (   628 PWs)   bands (ev):

     0.5382   0.5952   0.5952   1.1039   1.1039   6.4974   7.5741   7.5741
    15.2871  17.3851

     occupation numbers 
     1.0000   1.0000   1.0000   1.0000   1.0000   0.0000   0.0000   0.0000
     0.0000   0.0000

          k =-0.3333 0.3333 0.2500 (   639 PWs)   bands (ev):

     0.4533   0.4786   0.8349   0.9613   0.9797   3.1871   9.5177  11.3267
    11.9722  20.8553

     occupation numbers 
     1.0000   1.0000   1.0000   1.0000   1.0000   1.0001   0.0000   0.0000
     0.0000   0.0000

          k = 0.5833-0.5833 0.2500 (   638 PWs)   bands (ev):

     0.4322   0.4323   0.9477   0.9709   1.0008   4.4403   7.6774  10.7089
    11.5868  20.6798

     occupation numbers 
     1.0000   1.0000   1.0000   1.0000   1.0000   0.0213   0.0000   0.0000
     0.0000   0.0000

          k = 0.5833-0.6667 0.3333 (   637 PWs)   bands (ev):

     0.4377   0.5136   0.8480   0.9847   0.9925   4.3123   8.5977   9.8799
    11.1814  21.6263

     occupation numbers 
     1.0000   1.0000   1.0000   1.0000   1.0000   0.0989   0.0000   0.0000
     0.0000   0.0000

          k = 0.5000-0.5000 0.2500 (   636 PWs)   bands (ev):

     0.4220   0.4294   0.9876   0.9877   1.0005   5.7513   6.1527  10.5177
    11.4560  20.6011

     occupation numbers 
     1.0000   1.0000   1.0000   1.0000   1.0000   0.0000   0.0000   0.0000
     0.0000   0.0000

          k = 0.5000-0.5833 0.3333 (   647 PWs)   bands (ev):

     0.4157   0.5331   0.8139   0.9809   0.9991   5.5992   7.2938   9.1459
    10.8831  21.7064

     occupation numbers 
     1.0000   1.0000   1.0000   1.0000   1.0000   0.0000   0.0000   0.0000
     0.0000   0.0000

          k = 0.4167-0.5833 0.4167 (   637 PWs)   bands (ev):

     0.4153   0.6838   0.6838   1.0207   1.0207   6.3323   7.6881   7.6881
    10.7163  22.6491

     occupation numbers 
     1.0000   1.0000   1.0000   1.0000   1.0000   0.0000   0.0000   0.0000
     0.0000   0.0000

          k = 0.0000 0.0000 0.4167 (   623 PWs)   bands (ev):

     0.7373   0.7373   0.7374   0.7479   0.8313   1.9765  13.0965  13.2457
    13.2457  14.9898

     occupation numbers 
     1.0000   1.0000   1.0000   1.0000   1.0000   1.0000   0.0000   0.0000
     0.0000   0.0000

          k = 0.0000-0.0833 0.5000 (   632 PWs)   bands (ev):

     0.5953   0.6897   0.7178   0.8395   0.9567   2.8097  11.0299  12.3261
    13.1284  14.9733

     occupation numbers 
     1.0000   1.0000   1.0000   1.0000   1.0000   1.0000   0.0000   0.0000
     0.0000   0.0000

          k = 0.0000-0.1667 0.5833 (   637 PWs)   bands (ev):

     0.4815   0.6788   0.6868   0.8850   1.1000   3.9379   8.9355  11.6546
    12.8815  15.7618

     occupation numbers 
     1.0000   1.0000   1.0000   1.0000   1.0000   0.9256   0.0000   0.0000
     0.0000   0.0000

          k = 0.0000-0.2500 0.6667 (   637 PWs)   bands (ev):

     0.4196   0.6600   0.6712   0.9157   1.2031   5.3320   7.0470  11.2968
    12.7219  16.9154

     occupation numbers 
     1.0000   1.0000   1.0000   1.0000   1.0000   0.0000   0.0000   0.0000
     0.0000   0.0000

          k =-0.0833-0.0833 0.5833 (   632 PWs)   bands (ev):

     0.5302   0.6223   0.7715   0.8861   1.0551   3.7867  10.0506  10.7798
    13.2758  14.7352

     occupation numbers 
     1.0000   1.0000   1.0000   1.0000   1.0000   1.0805   0.0000   0.0000
     0.0000   0.0000

          k =-0.0833-0.1667 0.6667 (   640 PWs)   bands (ev):

     0.4560   0.5753   0.7283   0.9531   1.1494   5.0312   8.3410  10.0738
    13.3413  15.3796

     occupation numbers 
     1.0000   1.0000   1.0000   1.0000   1.0000   0.0000   0.0000   0.0000
     0.0000   0.0000

          k =-0.0833 0.7500-0.2500 (   639 PWs)   bands (ev):

     0.4356   0.5734   0.7176   0.9731   1.1891   6.2809   6.8737   9.8895
    13.3050  16.3649

     occupation numbers 
     1.0000   1.0000   1.0000   1.0000   1.0000   0.0000   0.0000   0.0000
     0.0000   0.0000

          k =-0.1667 0.8333-0.2500 (   645 PWs)   bands (ev):

     0.4599   0.5082   0.6955   1.0545   1.1404   6.3067   7.8784   8.5150
    14.0865  15.5003

     occupation numbers 
     1.0000   1.0000   1.0000   1.0000   1.0000   0.0000   0.0000   0.0000
     0.0000   0.0000

          k = 0.5833-0.5833 0.4167 (   646 PWs)   bands (ev):

     0.5021   0.5021   0.7486   0.9964   0.9964   5.4722   8.0278   9.4711
     9.4711  23.5874

     occupation numbers 
     1.0000   1.0000   1.0000   1.0000   1.0000   0.0000   0.0000   0.0000
     0.0000   0.0000

          k = 0.5000-0.5000 0.4167 (   646 PWs)   bands (ev):

     0.5119   0.5575   0.7086   0.9803   1.0003   6.3417   7.5365   8.7200
     9.3358  23.9189

     occupation numbers 
     1.0000   1.0000   1.0000   1.0000   1.0000   0.0000   0.0000   0.0000
     0.0000   0.0000

          k = 0.0000 0.0000 0.5833 (   635 PWs)   bands (ev):

     0.5233   0.6427   0.8624   0.8624   0.9538   3.6309  11.4046  11.4046
    11.7284  13.9149

     occupation numbers 
     1.0000   1.0000   1.0000   1.0000   1.0000   1.0518   0.0000   0.0000
     0.0000   0.0000

          k = 0.0000-0.0833 0.6667 (   641 PWs)   bands (ev):

     0.4415   0.5350   0.8691   0.9321   1.0916   4.7234   9.6147  10.7259
    11.9633  14.0072

     occupation numbers 
     1.0000   1.0000   1.0000   1.0000   1.0000   0.0002   0.0000   0.0000
     0.0000   0.0000

          k = 0.0000-0.1667 0.7500 (   642 PWs)   bands (ev):

     0.3932   0.4844   0.8650   0.9704   1.1891   6.0575   7.8228  10.3649
    12.0339  14.8948

     occupation numbers 
     1.0000   1.0000   1.0000   1.0000   1.0000   0.0000   0.0000   0.0000
     0.0000   0.0000

          k =-0.0833-0.0833 0.7500 (   643 PWs)   bands (ev):

     0.3844   0.4443   0.8940   1.0397   1.1476   5.9145   8.9477   9.4992
    12.2466  13.9698

     occupation numbers 
     1.0000   1.0000   1.0000   1.0000   1.0000   0.0000   0.0000   0.0000
     0.0000   0.0000

          k =-0.0833 0.8333-0.1667 (   649 PWs)   bands (ev):

     0.3601   0.4054   0.8943   1.0710   1.1602   7.0165   7.8326   9.1485
    12.4759  14.5591

     occupation numbers 
     1.0000   1.0000   1.0000   1.0000   1.0000   0.0000   0.0000   0.0000
     0.0000   0.0000

          k = 0.0000 0.0000 0.7500 (   646 PWs)   bands (ev):

     0.3486   0.4163   1.0317   1.0317   1.0781   5.7637  10.0381  10.0381
    10.8841  13.2464

     occupation numbers 
     1.0000   1.0000   1.0000   1.0000   1.0000   0.0000   0.0000   0.0000
     0.0000   0.0000

          k = 0.0000-0.0833 0.8333 (   651 PWs)   bands (ev):

     0.3087   0.3405   1.0401   1.0774   1.1557   7.0168   8.7276   9.6688
    11.1504  13.4490

     occupation numbers 
     1.0000   1.0000   1.0000   1.0000   1.0000   0.0000   0.0000   0.0000
     0.0000   0.0000

          k =-0.0833 0.9167-0.0833 (   652 PWs)   bands (ev):

     0.2948   0.2948   1.0532   1.1533   1.1533   7.9038   8.7950   8.7950
    11.2134  13.6062

     occupation numbers 
     1.0000   1.0000   1.0000   1.0000   1.0000   0.0000   0.0000   0.0000
     0.0000   0.0000

          k = 0.0000 0.0000 0.9167 (   650 PWs)   bands (ev):

     0.2547   0.2636   1.1601   1.1640   1.1640   8.1829   9.2946   9.2946
    10.0972  12.9320

     occupation numbers 
     1.0000   1.0000   1.0000   1.0000   1.0000   0.0000   0.0000   0.0000
     0.0000   0.0000

     the Fermi energy is     4.1437 ev

!    total energy              =     -84.10383489 Ry
     Harris-Foulkes estimate   =     -84.10383499 Ry
     estimated scf accuracy    <       0.00000012 Ry

     The total energy is the sum of the following terms:

     one-electron contribution =     -27.93500803 Ry
     hartree contribution      =      23.04602914 Ry
     xc contribution           =     -22.17521829 Ry
     ewald contribution        =     -57.03979893 Ry
     smearing contrib. (-TS)   =       0.00016122 Ry

     convergence has been achieved in   5 iterations

     Writing output data file Ag_exc2.save

     init_run     :      5.84s CPU      6.00s WALL (       1 calls)
     electrons    :     44.63s CPU     46.34s WALL (       1 calls)

     Called by init_run:
     wfcinit      :      2.84s CPU      2.96s WALL (       1 calls)
     potinit      :      0.09s CPU      0.09s WALL (       1 calls)

     Called by electrons:
     c_bands      :     37.23s CPU     38.67s WALL (       6 calls)
     sum_band     :      6.59s CPU      6.85s WALL (       6 calls)
     v_of_rho     :      0.32s CPU      0.32s WALL (       6 calls)
     v_h          :      0.02s CPU      0.01s WALL (       6 calls)
     v_xc         :      0.30s CPU      0.31s WALL (       6 calls)
     newd         :      0.72s CPU      0.76s WALL (       6 calls)
     mix_rho      :      0.01s CPU      0.02s WALL (       6 calls)

     Called by c_bands:
     init_us_2    :      1.41s CPU      1.48s WALL (     884 calls)
     cegterg      :     34.98s CPU     36.36s WALL (     408 calls)

     Called by sum_band:
     sum_band:bec :      0.02s CPU      0.02s WALL (     408 calls)
     addusdens    :      0.66s CPU      0.66s WALL (       6 calls)

     Called by *egterg:
     h_psi        :     28.00s CPU     29.11s WALL (    1551 calls)
     s_psi        :      1.60s CPU      1.73s WALL (    1551 calls)
     g_psi        :      0.14s CPU      0.12s WALL (    1075 calls)
     cdiaghg      :      1.44s CPU      1.54s WALL (    1415 calls)
     cegterg:over :      2.60s CPU      2.65s WALL (    1075 calls)
     cegterg:upda :      1.58s CPU      1.59s WALL (    1075 calls)
     cegterg:last :      0.85s CPU      0.89s WALL (     408 calls)

     Called by h_psi:
     h_psi:vloc   :     24.30s CPU     25.33s WALL (    1551 calls)
     h_psi:vnl    :      3.61s CPU      3.68s WALL (    1551 calls)
     add_vuspsi   :      1.68s CPU      1.74s WALL (    1551 calls)

     General routines
     calbec       :      2.58s CPU      2.61s WALL (    1959 calls)
     fft          :      0.15s CPU      0.16s WALL (      80 calls)
     fftw         :     26.00s CPU     27.01s WALL (   25734 calls)
     davcio       :      0.00s CPU      0.02s WALL (      68 calls)

     Parallel routines
     fft_scatter  :      1.11s CPU      1.30s WALL (   25814 calls)

     PWSCF        :    53.16s CPU        55.25s WALL


   This run was terminated on:  21:18:34  18Feb2020            

=------------------------------------------------------------------------------=
   JOB DONE.
=------------------------------------------------------------------------------=
