
     Program PWSCF v.5.1 starts on 11Feb2020 at 20: 9: 0 

     This program is part of the open-source Quantum ESPRESSO suite
     for quantum simulation of materials; please cite
         "P. Giannozzi et al., J. Phys.:Condens. Matter 21 395502 (2009);
          URL http://www.quantum-espresso.org", 
     in publications or presentations arising from this work. More details at
     http://www.quantum-espresso.org/quote

     Parallel version (MPI), running on     1 processors
     Waiting for input...
     Reading input from standard input

     Current dimensions of program PWSCF are:
     Max number of different atomic species (ntypx) = 10
     Max number of k-points (npk) =  40000
     Max angular momentum in pseudopotentials (lmaxx) =  3

     Subspace diagonalization in iterative solution of the eigenvalue problem:
     a serial algorithm will be used


     G-vector sticks info
     --------------------
     sticks:   dense  smooth     PW     G-vecs:    dense   smooth      PW
     Sum         337     337    121                 4015     4015     869



     bravais-lattice index     =            2
     lattice parameter (alat)  =      11.0000  a.u.
     unit-cell volume          =     332.7500 (a.u.)^3
     number of atoms/cell      =            2
     number of atomic types    =            1
     number of electrons       =         8.00
     number of Kohn-Sham states=            4
     kinetic-energy cutoff     =      20.0000  Ry
     charge density cutoff     =      80.0000  Ry
     convergence threshold     =      1.0E-06
     mixing beta               =       0.6000
     number of iterations used =            8  plain     mixing
     Exchange-correlation      =  SLA  PW   PBE  PBE ( 1  4  3  4 0)

     celldm(1)=  11.000000  celldm(2)=   0.000000  celldm(3)=   0.000000
     celldm(4)=   0.000000  celldm(5)=   0.000000  celldm(6)=   0.000000

     crystal axes: (cart. coord. in units of alat)
               a(1) = (  -0.500000   0.000000   0.500000 )  
               a(2) = (   0.000000   0.500000   0.500000 )  
               a(3) = (  -0.500000   0.500000   0.000000 )  

     reciprocal axes: (cart. coord. in units 2 pi/alat)
               b(1) = ( -1.000000 -1.000000  1.000000 )  
               b(2) = (  1.000000  1.000000  1.000000 )  
               b(3) = ( -1.000000  1.000000 -1.000000 )  


     PseudoPot. # 1 for Si read from file:
     ../pseudo/Si.pbe-rrkj.UPF
     MD5 check sum: cf7ab5690cd9a85b22c4813f7e365554
     Pseudo is Norm-conserving, Zval =  4.0
     Generated by new atomic code, or converted to UPF format
     Using radial grid of  883 points,  3 beta functions with: 
                l(1) =   0
                l(2) =   0
                l(3) =   1

     atomic species   valence    mass     pseudopotential
        Si             4.00    28.08600     Si( 1.00)

     48 Sym. Ops., with inversion, found (24 have fractional translation)



   Cartesian axes

     site n.     atom                  positions (alat units)
         1           Si  tau(   1) = (   0.0000000   0.0000000   0.0000000  )
         2           Si  tau(   2) = (   0.2500000   0.2500000   0.2500000  )

     number of k points=    28
                       cart. coord. in units 2pi/alat
        k(    1) = (  -0.0833333   0.0833333   0.0833333), wk =   0.0185185
        k(    2) = (  -0.2500000   0.2500000  -0.0833333), wk =   0.0555556
        k(    3) = (  -0.4166667   0.4166667  -0.2500000), wk =   0.0555556
        k(    4) = (   0.4166667  -0.4166667   0.5833333), wk =   0.0555556
        k(    5) = (   0.2500000  -0.2500000   0.4166667), wk =   0.0555556
        k(    6) = (   0.0833333  -0.0833333   0.2500000), wk =   0.0555556
        k(    7) = (  -0.0833333   0.4166667   0.0833333), wk =   0.0555556
        k(    8) = (  -0.2500000   0.5833333  -0.0833333), wk =   0.1111111
        k(    9) = (   0.5833333  -0.2500000   0.7500000), wk =   0.1111111
        k(   10) = (   0.4166667  -0.0833333   0.5833333), wk =   0.1111111
        k(   11) = (   0.2500000   0.0833333   0.4166667), wk =   0.1111111
        k(   12) = (  -0.0833333   0.7500000   0.0833333), wk =   0.0555556
        k(   13) = (   0.7500000  -0.0833333   0.9166667), wk =   0.1111111
        k(   14) = (   0.5833333   0.0833333   0.7500000), wk =   0.1111111
        k(   15) = (   0.4166667   0.2500000   0.5833333), wk =   0.1111111
        k(   16) = (  -0.0833333  -0.9166667   0.0833333), wk =   0.0555556
        k(   17) = (  -0.2500000  -0.7500000  -0.0833333), wk =   0.1111111
        k(   18) = (  -0.0833333  -0.5833333   0.0833333), wk =   0.0555556
        k(   19) = (  -0.2500000   0.2500000   0.2500000), wk =   0.0185185
        k(   20) = (  -0.4166667   0.4166667   0.0833333), wk =   0.0555556
        k(   21) = (   0.4166667  -0.4166667   0.9166667), wk =   0.0555556
        k(   22) = (   0.2500000  -0.2500000   0.7500000), wk =   0.0555556
        k(   23) = (  -0.2500000   0.5833333   0.2500000), wk =   0.0555556
        k(   24) = (   0.5833333  -0.2500000   1.0833333), wk =   0.1111111
        k(   25) = (   0.4166667  -0.0833333   0.9166667), wk =   0.1111111
        k(   26) = (  -0.2500000  -1.0833333   0.2500000), wk =   0.0555556
        k(   27) = (  -0.4166667   0.4166667   0.4166667), wk =   0.0185185
        k(   28) = (   0.4166667  -0.4166667   1.2500000), wk =   0.0555556

     Dense  grid:     4015 G-vectors     FFT dimensions: (  24,  24,  24)

     Largest allocated arrays     est. size (Mb)     dimensions
        Kohn-Sham Wavefunctions         0.03 Mb     (     531,    4)
        NL pseudopotentials             0.08 Mb     (     531,   10)
        Each V/rho on FFT grid          0.21 Mb     (   13824)
        Each G-vector array             0.03 Mb     (    4015)
        G-vector shells                 0.00 Mb     (      84)
     Largest temporary arrays     est. size (Mb)     dimensions
        Auxiliary wavefunctions         0.13 Mb     (     531,   16)
        Each subspace H/S matrix        0.00 Mb     (      16,   16)
        Each <psi_i|beta_j> matrix      0.00 Mb     (      10,    4)
        Arrays for rho mixing           1.69 Mb     (   13824,    8)

     Initial potential from superposition of free atoms

     starting charge    7.99889, renormalised to    8.00000
     Starting wfc are    8 randomized atomic wfcs

     total cpu time spent up to now is        0.5 secs

     per-process dynamical memory:     7.2 Mb

     Self-consistent Calculation

     iteration #  1     ecut=    20.00 Ry     beta=0.60
     Davidson diagonalization with overlap
     ethr =  1.00E-02,  avg # of iterations =  2.0

     Threshold (ethr) on eigenvalues was too large:
     Diagonalizing with lowered threshold

     Davidson diagonalization with overlap
     ethr =  4.60E-04,  avg # of iterations =  2.5

     total cpu time spent up to now is        1.2 secs

     total energy              =     -15.71684213 Ry
     Harris-Foulkes estimate   =     -15.72294036 Ry
     estimated scf accuracy    <       0.04048082 Ry

     iteration #  2     ecut=    20.00 Ry     beta=0.60
     Davidson diagonalization with overlap
     ethr =  5.06E-04,  avg # of iterations =  1.0

     total cpu time spent up to now is        1.6 secs

     total energy              =     -15.71709020 Ry
     Harris-Foulkes estimate   =     -15.71756398 Ry
     estimated scf accuracy    <       0.00513208 Ry

     iteration #  3     ecut=    20.00 Ry     beta=0.60
     Davidson diagonalization with overlap
     ethr =  6.42E-05,  avg # of iterations =  1.1

     total cpu time spent up to now is        2.0 secs

     total energy              =     -15.71734725 Ry
     Harris-Foulkes estimate   =     -15.71735778 Ry
     estimated scf accuracy    <       0.00005122 Ry

     iteration #  4     ecut=    20.00 Ry     beta=0.60
     Davidson diagonalization with overlap
     ethr =  6.40E-07,  avg # of iterations =  3.9

     total cpu time spent up to now is        2.6 secs

     total energy              =     -15.71743040 Ry
     Harris-Foulkes estimate   =     -15.71743190 Ry
     estimated scf accuracy    <       0.00000331 Ry

     iteration #  5     ecut=    20.00 Ry     beta=0.60
     Davidson diagonalization with overlap
     ethr =  4.14E-08,  avg # of iterations =  2.0

     total cpu time spent up to now is        3.0 secs

     End of self-consistent calculation

          k =-0.0833 0.0833 0.0833 (   531 PWs)   bands (ev):

    -6.2834   3.3178   4.1354   4.1354

          k =-0.2500 0.2500-0.0833 (   511 PWs)   bands (ev):

    -5.8871   1.4144   3.1272   3.9390

          k =-0.4167 0.4167-0.2500 (   508 PWs)   bands (ev):

    -4.9984  -0.8834   2.6802   3.4064

          k = 0.4167-0.4167 0.5833 (   502 PWs)   bands (ev):

    -4.4649  -1.7932   2.7035   3.0997

          k = 0.2500-0.2500 0.4167 (   504 PWs)   bands (ev):

    -5.3286  -0.1858   3.1214   3.1721

          k = 0.0833-0.0833 0.2500 (   515 PWs)   bands (ev):

    -6.0828   2.2729   3.6231   3.7150

          k =-0.0833 0.4167 0.0833 (   506 PWs)   bands (ev):

    -5.6855   1.1165   2.9711   3.0222

          k =-0.2500 0.5833-0.0833 (   508 PWs)   bands (ev):

    -4.9354  -0.4632   1.9187   2.6893

          k = 0.5833-0.2500 0.7500 (   499 PWs)   bands (ev):

    -4.0613  -1.8357   1.3741   2.5166

          k = 0.4167-0.0833 0.5833 (   503 PWs)   bands (ev):

    -4.6216  -1.0138   1.3972   2.8968

          k = 0.2500 0.0833 0.4167 (   507 PWs)   bands (ev):

    -5.5009   0.4764   2.4850   3.4162

          k =-0.0833 0.7500 0.0833 (   498 PWs)   bands (ev):

    -4.3389  -1.2481   1.9056   2.1579

          k = 0.7500-0.0833 0.9167 (   495 PWs)   bands (ev):

    -3.3675  -2.3789   1.2605   1.8534

          k = 0.5833 0.0833 0.7500 (   503 PWs)   bands (ev):

    -3.7105  -2.0287   0.8604   2.2937

          k = 0.4167 0.2500 0.5833 (   506 PWs)   bands (ev):

    -4.5479  -1.4485   2.0717   2.9674

          k =-0.0833-0.9167 0.0833 (   494 PWs)   bands (ev):

    -3.4245  -2.3783   1.6865   1.9754

          k =-0.2500-0.7500-0.0833 (   499 PWs)   bands (ev):

    -4.2109  -1.4197   1.4938   2.1341

          k =-0.0833-0.5833 0.0833 (   500 PWs)   bands (ev):

    -5.0996  -0.0692   2.3400   2.5143

          k =-0.2500 0.2500 0.2500 (   510 PWs)   bands (ev):

    -5.6984   0.6329   3.6193   3.6193

          k =-0.4167 0.4167 0.0833 (   505 PWs)   bands (ev):

    -5.1400  -0.2818   1.8853   3.4651

          k = 0.4167-0.4167 0.9167 (   505 PWs)   bands (ev):

    -4.1919  -1.5566   1.0076   2.8321

          k = 0.2500-0.2500 0.7500 (   504 PWs)   bands (ev):

    -4.1405  -1.6281   1.3687   2.4444

          k =-0.2500 0.5833 0.2500 (   506 PWs)   bands (ev):

    -4.7960  -0.9322   2.1834   2.7534

          k = 0.5833-0.2500 1.0833 (   500 PWs)   bands (ev):

    -3.9817  -1.7144   1.0982   2.1498

          k = 0.4167-0.0833 0.9167 (   502 PWs)   bands (ev):

    -3.3043  -2.3859   1.0062   1.6259

          k =-0.2500-1.0833 0.2500 (   500 PWs)   bands (ev):

    -3.4835  -2.2648   0.9025   2.2825

          k =-0.4167 0.4167 0.4167 (   498 PWs)   bands (ev):

    -4.7471  -1.4619   3.2779   3.2779

          k = 0.4167-0.4167 1.2500 (   505 PWs)   bands (ev):

    -4.2660  -1.7821   1.7327   2.9316

     highest occupied level (ev):     4.1354

!    total energy              =     -15.71743088 Ry
     Harris-Foulkes estimate   =     -15.71743086 Ry
     estimated scf accuracy    <       0.00000010 Ry

     The total energy is the sum of the following terms:

     one-electron contribution =       3.27575184 Ry
     hartree contribution      =       1.28206147 Ry
     xc contribution           =      -4.60455895 Ry
     ewald contribution        =     -15.67068523 Ry

     convergence has been achieved in   5 iterations

     Writing output data file Si_exc1.save

     init_run     :      0.47s CPU      0.47s WALL (       1 calls)
     electrons    :      2.44s CPU      2.49s WALL (       1 calls)

     Called by init_run:
     wfcinit      :      0.24s CPU      0.25s WALL (       1 calls)
     potinit      :      0.03s CPU      0.03s WALL (       1 calls)

     Called by electrons:
     c_bands      :      1.94s CPU      1.97s WALL (       6 calls)
     sum_band     :      0.40s CPU      0.41s WALL (       6 calls)
     v_of_rho     :      0.12s CPU      0.12s WALL (       6 calls)
     mix_rho      :      0.00s CPU      0.00s WALL (       6 calls)

     Called by c_bands:
     init_us_2    :      0.12s CPU      0.11s WALL (     364 calls)
     cegterg      :      1.85s CPU      1.89s WALL (     168 calls)

     Called by *egterg:
     h_psi        :      1.83s CPU      1.89s WALL (     547 calls)
     g_psi        :      0.00s CPU      0.01s WALL (     351 calls)
     cdiaghg      :      0.06s CPU      0.05s WALL (     491 calls)

     Called by h_psi:
     add_vuspsi   :      0.06s CPU      0.05s WALL (     547 calls)

     General routines
     calbec       :      0.04s CPU      0.05s WALL (     547 calls)
     fft          :      0.04s CPU      0.04s WALL (      67 calls)
     fftw         :      1.82s CPU      1.87s WALL (    4712 calls)
     davcio       :      0.00s CPU      0.00s WALL (      28 calls)

     Parallel routines
     fft_scatter  :      0.14s CPU      0.11s WALL (    4779 calls)

     PWSCF        :     3.09s CPU         3.15s WALL


   This run was terminated on:  20: 9: 3  11Feb2020            

=------------------------------------------------------------------------------=
   JOB DONE.
=------------------------------------------------------------------------------=
