
     Program PWSCF v.5.1 starts on 11Feb2020 at 18:48:32 

     This program is part of the open-source Quantum ESPRESSO suite
     for quantum simulation of materials; please cite
         "P. Giannozzi et al., J. Phys.:Condens. Matter 21 395502 (2009);
          URL http://www.quantum-espresso.org", 
     in publications or presentations arising from this work. More details at
     http://www.quantum-espresso.org/quote

     Parallel version (MPI), running on     1 processors
     Waiting for input...
     Reading input from standard input

     Current dimensions of program PWSCF are:
     Max number of different atomic species (ntypx) = 10
     Max number of k-points (npk) =  40000
     Max angular momentum in pseudopotentials (lmaxx) =  3

     Subspace diagonalization in iterative solution of the eigenvalue problem:
     a serial algorithm will be used


     G-vector sticks info
     --------------------
     sticks:   dense  smooth     PW     G-vecs:    dense   smooth      PW
     Sum         295     295    109                 3287     3287     701



     bravais-lattice index     =            2
     lattice parameter (alat)  =      10.2600  a.u.
     unit-cell volume          =     270.0114 (a.u.)^3
     number of atoms/cell      =            2
     number of atomic types    =            1
     number of electrons       =         8.00
     number of Kohn-Sham states=            4
     kinetic-energy cutoff     =      20.0000  Ry
     charge density cutoff     =      80.0000  Ry
     convergence threshold     =      1.0E-06
     mixing beta               =       0.6000
     number of iterations used =            8  plain     mixing
     Exchange-correlation      =  SLA  PW   PBE  PBE ( 1  4  3  4 0)

     celldm(1)=  10.260000  celldm(2)=   0.000000  celldm(3)=   0.000000
     celldm(4)=   0.000000  celldm(5)=   0.000000  celldm(6)=   0.000000

     crystal axes: (cart. coord. in units of alat)
               a(1) = (  -0.500000   0.000000   0.500000 )  
               a(2) = (   0.000000   0.500000   0.500000 )  
               a(3) = (  -0.500000   0.500000   0.000000 )  

     reciprocal axes: (cart. coord. in units 2 pi/alat)
               b(1) = ( -1.000000 -1.000000  1.000000 )  
               b(2) = (  1.000000  1.000000  1.000000 )  
               b(3) = ( -1.000000  1.000000 -1.000000 )  


     PseudoPot. # 1 for Si read from file:
     ../pseudo/Si.pbe-rrkj.UPF
     MD5 check sum: cf7ab5690cd9a85b22c4813f7e365554
     Pseudo is Norm-conserving, Zval =  4.0
     Generated by new atomic code, or converted to UPF format
     Using radial grid of  883 points,  3 beta functions with: 
                l(1) =   0
                l(2) =   0
                l(3) =   1

     atomic species   valence    mass     pseudopotential
        Si             4.00    28.08600     Si( 1.00)

     48 Sym. Ops., with inversion, found (24 have fractional translation)



   Cartesian axes

     site n.     atom                  positions (alat units)
         1           Si  tau(   1) = (   0.0000000   0.0000000   0.0000000  )
         2           Si  tau(   2) = (   0.2500000   0.2500000   0.2500000  )

     number of k points=    28
                       cart. coord. in units 2pi/alat
        k(    1) = (  -0.0833333   0.0833333   0.0833333), wk =   0.0185185
        k(    2) = (  -0.2500000   0.2500000  -0.0833333), wk =   0.0555556
        k(    3) = (  -0.4166667   0.4166667  -0.2500000), wk =   0.0555556
        k(    4) = (   0.4166667  -0.4166667   0.5833333), wk =   0.0555556
        k(    5) = (   0.2500000  -0.2500000   0.4166667), wk =   0.0555556
        k(    6) = (   0.0833333  -0.0833333   0.2500000), wk =   0.0555556
        k(    7) = (  -0.0833333   0.4166667   0.0833333), wk =   0.0555556
        k(    8) = (  -0.2500000   0.5833333  -0.0833333), wk =   0.1111111
        k(    9) = (   0.5833333  -0.2500000   0.7500000), wk =   0.1111111
        k(   10) = (   0.4166667  -0.0833333   0.5833333), wk =   0.1111111
        k(   11) = (   0.2500000   0.0833333   0.4166667), wk =   0.1111111
        k(   12) = (  -0.0833333   0.7500000   0.0833333), wk =   0.0555556
        k(   13) = (   0.7500000  -0.0833333   0.9166667), wk =   0.1111111
        k(   14) = (   0.5833333   0.0833333   0.7500000), wk =   0.1111111
        k(   15) = (   0.4166667   0.2500000   0.5833333), wk =   0.1111111
        k(   16) = (  -0.0833333  -0.9166667   0.0833333), wk =   0.0555556
        k(   17) = (  -0.2500000  -0.7500000  -0.0833333), wk =   0.1111111
        k(   18) = (  -0.0833333  -0.5833333   0.0833333), wk =   0.0555556
        k(   19) = (  -0.2500000   0.2500000   0.2500000), wk =   0.0185185
        k(   20) = (  -0.4166667   0.4166667   0.0833333), wk =   0.0555556
        k(   21) = (   0.4166667  -0.4166667   0.9166667), wk =   0.0555556
        k(   22) = (   0.2500000  -0.2500000   0.7500000), wk =   0.0555556
        k(   23) = (  -0.2500000   0.5833333   0.2500000), wk =   0.0555556
        k(   24) = (   0.5833333  -0.2500000   1.0833333), wk =   0.1111111
        k(   25) = (   0.4166667  -0.0833333   0.9166667), wk =   0.1111111
        k(   26) = (  -0.2500000  -1.0833333   0.2500000), wk =   0.0555556
        k(   27) = (  -0.4166667   0.4166667   0.4166667), wk =   0.0185185
        k(   28) = (   0.4166667  -0.4166667   1.2500000), wk =   0.0555556

     Dense  grid:     3287 G-vectors     FFT dimensions: (  24,  24,  24)

     Largest allocated arrays     est. size (Mb)     dimensions
        Kohn-Sham Wavefunctions         0.03 Mb     (     413,    4)
        NL pseudopotentials             0.06 Mb     (     413,   10)
        Each V/rho on FFT grid          0.21 Mb     (   13824)
        Each G-vector array             0.03 Mb     (    3287)
        G-vector shells                 0.00 Mb     (      74)
     Largest temporary arrays     est. size (Mb)     dimensions
        Auxiliary wavefunctions         0.10 Mb     (     413,   16)
        Each subspace H/S matrix        0.00 Mb     (      16,   16)
        Each <psi_i|beta_j> matrix      0.00 Mb     (      10,    4)
        Arrays for rho mixing           1.69 Mb     (   13824,    8)

     Initial potential from superposition of free atoms

     starting charge    7.99889, renormalised to    8.00000
     Starting wfc are    8 randomized atomic wfcs

     total cpu time spent up to now is        0.8 secs

     per-process dynamical memory:     7.0 Mb

     Self-consistent Calculation

     iteration #  1     ecut=    20.00 Ry     beta=0.60
     Davidson diagonalization with overlap
     ethr =  1.00E-02,  avg # of iterations =  2.0

     Threshold (ethr) on eigenvalues was too large:
     Diagonalizing with lowered threshold

     Davidson diagonalization with overlap
     ethr =  7.32E-04,  avg # of iterations =  1.1

     total cpu time spent up to now is        1.5 secs

     total energy              =     -15.73914743 Ry
     Harris-Foulkes estimate   =     -15.75171643 Ry
     estimated scf accuracy    <       0.05765719 Ry

     iteration #  2     ecut=    20.00 Ry     beta=0.60
     Davidson diagonalization with overlap
     ethr =  7.21E-04,  avg # of iterations =  1.0

     total cpu time spent up to now is        1.8 secs

     total energy              =     -15.74007018 Ry
     Harris-Foulkes estimate   =     -15.74072447 Ry
     estimated scf accuracy    <       0.00611559 Ry

     iteration #  3     ecut=    20.00 Ry     beta=0.60
     Davidson diagonalization with overlap
     ethr =  7.64E-05,  avg # of iterations =  1.8

     total cpu time spent up to now is        2.1 secs

     total energy              =     -15.74064880 Ry
     Harris-Foulkes estimate   =     -15.74068909 Ry
     estimated scf accuracy    <       0.00013573 Ry

     iteration #  4     ecut=    20.00 Ry     beta=0.60
     Davidson diagonalization with overlap
     ethr =  1.70E-06,  avg # of iterations =  3.0

     total cpu time spent up to now is        2.6 secs

     total energy              =     -15.74071558 Ry
     Harris-Foulkes estimate   =     -15.74072384 Ry
     estimated scf accuracy    <       0.00001969 Ry

     iteration #  5     ecut=    20.00 Ry     beta=0.60
     Davidson diagonalization with overlap
     ethr =  2.46E-07,  avg # of iterations =  2.2

     total cpu time spent up to now is        2.9 secs

     End of self-consistent calculation

          k =-0.0833 0.0833 0.0833 (   405 PWs)   bands (ev):

    -5.5778   5.3928   6.0947   6.0947

          k =-0.2500 0.2500-0.0833 (   399 PWs)   bands (ev):

    -5.0995   3.3246   4.8596   5.8860

          k =-0.4167 0.4167-0.2500 (   409 PWs)   bands (ev):

    -4.0013   0.5554   4.3992   5.2480

          k = 0.4167-0.4167 0.5833 (   407 PWs)   bands (ev):

    -3.2948  -0.5971   4.4684   4.8658

          k = 0.2500-0.2500 0.4167 (   405 PWs)   bands (ev):

    -4.4158   1.4052   4.9246   4.9692

          k = 0.0833-0.0833 0.2500 (   401 PWs)   bands (ev):

    -5.3364   4.3355   5.4466   5.6417

          k =-0.0833 0.4167 0.0833 (   404 PWs)   bands (ev):

    -4.8576   3.1498   4.7072   4.7145

          k =-0.2500 0.5833-0.0833 (   409 PWs)   bands (ev):

    -3.9433   1.3110   3.3821   4.3287

          k = 0.5833-0.2500 0.7500 (   409 PWs)   bands (ev):

    -2.8168  -0.4547   2.7846   4.0987

          k = 0.4167-0.0833 0.5833 (   411 PWs)   bands (ev):

    -3.5459   0.6133   2.7366   4.5888

          k = 0.2500 0.0833 0.4167 (   404 PWs)   bands (ev):

    -4.6310   2.3054   4.0820   5.2621

          k =-0.0833 0.7500 0.0833 (   413 PWs)   bands (ev):

    -3.2298   0.4928   3.3411   3.6829

          k = 0.7500-0.0833 0.9167 (   411 PWs)   bands (ev):

    -2.0273  -0.8495   2.4930   3.2737

          k = 0.5833 0.0833 0.7500 (   405 PWs)   bands (ev):

    -2.3956  -0.5213   2.0099   3.8219

          k = 0.4167 0.2500 0.5833 (   407 PWs)   bands (ev):

    -3.4312  -0.0871   3.6908   4.6871

          k =-0.0833-0.9167 0.0833 (   413 PWs)   bands (ev):

    -2.1216  -0.8584   3.0699   3.4670

          k =-0.2500-0.7500-0.0833 (   410 PWs)   bands (ev):

    -3.0593   0.2670   2.8199   3.6149

          k =-0.0833-0.5833 0.0833 (   413 PWs)   bands (ev):

    -4.1503   1.8575   3.8903   4.1063

          k =-0.2500 0.2500 0.2500 (   401 PWs)   bands (ev):

    -4.8689   2.3412   5.4808   5.4808

          k =-0.4167 0.4167 0.0833 (   404 PWs)   bands (ev):

    -4.1867   1.4171   3.3471   5.3121

          k = 0.4167-0.4167 0.9167 (   406 PWs)   bands (ev):

    -3.0000  -0.0207   2.2329   4.5222

          k = 0.2500-0.2500 0.7500 (   412 PWs)   bands (ev):

    -2.9485  -0.0998   2.7166   4.0379

          k =-0.2500 0.5833 0.2500 (   412 PWs)   bands (ev):

    -3.7603   0.6048   3.8217   4.4123

          k = 0.5833-0.2500 1.0833 (   409 PWs)   bands (ev):

    -2.7527  -0.1270   2.3319   3.6123

          k = 0.4167-0.0833 0.9167 (   405 PWs)   bands (ev):

    -1.9173  -0.8573   2.1614   2.9408

          k =-0.2500-1.0833 0.2500 (   410 PWs)   bands (ev):

    -2.1281  -0.7678   2.0346   3.8426

          k =-0.4167 0.4167 0.4167 (   413 PWs)   bands (ev):

    -3.6683  -0.1943   5.0925   5.0925

          k = 0.4167-0.4167 1.2500 (   406 PWs)   bands (ev):

    -3.0587  -0.4924   3.2635   4.6498

     highest occupied level (ev):     6.0947

!    total energy              =     -15.74071914 Ry
     Harris-Foulkes estimate   =     -15.74071948 Ry
     estimated scf accuracy    <       0.00000080 Ry

     The total energy is the sum of the following terms:

     one-electron contribution =       4.77975748 Ry
     hartree contribution      =       1.09337312 Ry
     xc contribution           =      -4.81292015 Ry
     ewald contribution        =     -16.80092959 Ry

     convergence has been achieved in   5 iterations

     Writing output data file Si_exc1.save

     init_run     :      0.38s CPU      0.55s WALL (       1 calls)
     electrons    :      2.04s CPU      2.10s WALL (       1 calls)

     Called by init_run:
     wfcinit      :      0.22s CPU      0.26s WALL (       1 calls)
     potinit      :      0.02s CPU      0.07s WALL (       1 calls)

     Called by electrons:
     c_bands      :      1.60s CPU      1.62s WALL (       6 calls)
     sum_band     :      0.34s CPU      0.34s WALL (       6 calls)
     v_of_rho     :      0.12s CPU      0.13s WALL (       6 calls)
     mix_rho      :      0.00s CPU      0.00s WALL (       6 calls)

     Called by c_bands:
     init_us_2    :      0.08s CPU      0.07s WALL (     364 calls)
     cegterg      :      1.55s CPU      1.56s WALL (     168 calls)

     Called by *egterg:
     h_psi        :      1.54s CPU      1.59s WALL (     507 calls)
     g_psi        :      0.00s CPU      0.01s WALL (     311 calls)
     cdiaghg      :      0.06s CPU      0.08s WALL (     451 calls)

     Called by h_psi:
     add_vuspsi   :      0.05s CPU      0.04s WALL (     507 calls)

     General routines
     calbec       :      0.02s CPU      0.04s WALL (     507 calls)
     fft          :      0.04s CPU      0.11s WALL (      67 calls)
     fftw         :      1.55s CPU      1.59s WALL (    4584 calls)
     davcio       :      0.00s CPU      0.00s WALL (      28 calls)

     Parallel routines
     fft_scatter  :      0.08s CPU      0.09s WALL (    4651 calls)

     PWSCF        :     2.61s CPU         3.10s WALL


   This run was terminated on:  18:48:35  11Feb2020            

=------------------------------------------------------------------------------=
   JOB DONE.
=------------------------------------------------------------------------------=
