
     Program PWSCF v.5.1 starts on 11Feb2020 at 20: 6:54 

     This program is part of the open-source Quantum ESPRESSO suite
     for quantum simulation of materials; please cite
         "P. Giannozzi et al., J. Phys.:Condens. Matter 21 395502 (2009);
          URL http://www.quantum-espresso.org", 
     in publications or presentations arising from this work. More details at
     http://www.quantum-espresso.org/quote

     Parallel version (MPI), running on     1 processors
     Waiting for input...
     Reading input from standard input

     Current dimensions of program PWSCF are:
     Max number of different atomic species (ntypx) = 10
     Max number of k-points (npk) =  40000
     Max angular momentum in pseudopotentials (lmaxx) =  3

     Subspace diagonalization in iterative solution of the eigenvalue problem:
     a serial algorithm will be used


     G-vector sticks info
     --------------------
     sticks:   dense  smooth     PW     G-vecs:    dense   smooth      PW
     Sum         253     253     91                 2741     2741     609



     bravais-lattice index     =            2
     lattice parameter (alat)  =       9.8000  a.u.
     unit-cell volume          =     235.2980 (a.u.)^3
     number of atoms/cell      =            2
     number of atomic types    =            1
     number of electrons       =         8.00
     number of Kohn-Sham states=            4
     kinetic-energy cutoff     =      20.0000  Ry
     charge density cutoff     =      80.0000  Ry
     convergence threshold     =      1.0E-06
     mixing beta               =       0.6000
     number of iterations used =            8  plain     mixing
     Exchange-correlation      =  SLA  PW   PBE  PBE ( 1  4  3  4 0)

     celldm(1)=   9.800000  celldm(2)=   0.000000  celldm(3)=   0.000000
     celldm(4)=   0.000000  celldm(5)=   0.000000  celldm(6)=   0.000000

     crystal axes: (cart. coord. in units of alat)
               a(1) = (  -0.500000   0.000000   0.500000 )  
               a(2) = (   0.000000   0.500000   0.500000 )  
               a(3) = (  -0.500000   0.500000   0.000000 )  

     reciprocal axes: (cart. coord. in units 2 pi/alat)
               b(1) = ( -1.000000 -1.000000  1.000000 )  
               b(2) = (  1.000000  1.000000  1.000000 )  
               b(3) = ( -1.000000  1.000000 -1.000000 )  


     PseudoPot. # 1 for Si read from file:
     ../pseudo/Si.pbe-rrkj.UPF
     MD5 check sum: cf7ab5690cd9a85b22c4813f7e365554
     Pseudo is Norm-conserving, Zval =  4.0
     Generated by new atomic code, or converted to UPF format
     Using radial grid of  883 points,  3 beta functions with: 
                l(1) =   0
                l(2) =   0
                l(3) =   1

     atomic species   valence    mass     pseudopotential
        Si             4.00    28.08600     Si( 1.00)

     48 Sym. Ops., with inversion, found (24 have fractional translation)



   Cartesian axes

     site n.     atom                  positions (alat units)
         1           Si  tau(   1) = (   0.0000000   0.0000000   0.0000000  )
         2           Si  tau(   2) = (   0.2500000   0.2500000   0.2500000  )

     number of k points=    28
                       cart. coord. in units 2pi/alat
        k(    1) = (  -0.0833333   0.0833333   0.0833333), wk =   0.0185185
        k(    2) = (  -0.2500000   0.2500000  -0.0833333), wk =   0.0555556
        k(    3) = (  -0.4166667   0.4166667  -0.2500000), wk =   0.0555556
        k(    4) = (   0.4166667  -0.4166667   0.5833333), wk =   0.0555556
        k(    5) = (   0.2500000  -0.2500000   0.4166667), wk =   0.0555556
        k(    6) = (   0.0833333  -0.0833333   0.2500000), wk =   0.0555556
        k(    7) = (  -0.0833333   0.4166667   0.0833333), wk =   0.0555556
        k(    8) = (  -0.2500000   0.5833333  -0.0833333), wk =   0.1111111
        k(    9) = (   0.5833333  -0.2500000   0.7500000), wk =   0.1111111
        k(   10) = (   0.4166667  -0.0833333   0.5833333), wk =   0.1111111
        k(   11) = (   0.2500000   0.0833333   0.4166667), wk =   0.1111111
        k(   12) = (  -0.0833333   0.7500000   0.0833333), wk =   0.0555556
        k(   13) = (   0.7500000  -0.0833333   0.9166667), wk =   0.1111111
        k(   14) = (   0.5833333   0.0833333   0.7500000), wk =   0.1111111
        k(   15) = (   0.4166667   0.2500000   0.5833333), wk =   0.1111111
        k(   16) = (  -0.0833333  -0.9166667   0.0833333), wk =   0.0555556
        k(   17) = (  -0.2500000  -0.7500000  -0.0833333), wk =   0.1111111
        k(   18) = (  -0.0833333  -0.5833333   0.0833333), wk =   0.0555556
        k(   19) = (  -0.2500000   0.2500000   0.2500000), wk =   0.0185185
        k(   20) = (  -0.4166667   0.4166667   0.0833333), wk =   0.0555556
        k(   21) = (   0.4166667  -0.4166667   0.9166667), wk =   0.0555556
        k(   22) = (   0.2500000  -0.2500000   0.7500000), wk =   0.0555556
        k(   23) = (  -0.2500000   0.5833333   0.2500000), wk =   0.0555556
        k(   24) = (   0.5833333  -0.2500000   1.0833333), wk =   0.1111111
        k(   25) = (   0.4166667  -0.0833333   0.9166667), wk =   0.1111111
        k(   26) = (  -0.2500000  -1.0833333   0.2500000), wk =   0.0555556
        k(   27) = (  -0.4166667   0.4166667   0.4166667), wk =   0.0185185
        k(   28) = (   0.4166667  -0.4166667   1.2500000), wk =   0.0555556

     Dense  grid:     2741 G-vectors     FFT dimensions: (  20,  20,  20)

     Largest allocated arrays     est. size (Mb)     dimensions
        Kohn-Sham Wavefunctions         0.02 Mb     (     363,    4)
        NL pseudopotentials             0.06 Mb     (     363,   10)
        Each V/rho on FFT grid          0.12 Mb     (    8000)
        Each G-vector array             0.02 Mb     (    2741)
        G-vector shells                 0.00 Mb     (      66)
     Largest temporary arrays     est. size (Mb)     dimensions
        Auxiliary wavefunctions         0.09 Mb     (     363,   16)
        Each subspace H/S matrix        0.00 Mb     (      16,   16)
        Each <psi_i|beta_j> matrix      0.00 Mb     (      10,    4)
        Arrays for rho mixing           0.98 Mb     (    8000,    8)

     Initial potential from superposition of free atoms

     starting charge    7.99889, renormalised to    8.00000
     Starting wfc are    8 randomized atomic wfcs

     total cpu time spent up to now is        0.3 secs

     per-process dynamical memory:     6.1 Mb

     Self-consistent Calculation

     iteration #  1     ecut=    20.00 Ry     beta=0.60
     Davidson diagonalization with overlap
     ethr =  1.00E-02,  avg # of iterations =  2.0

     Threshold (ethr) on eigenvalues was too large:
     Diagonalizing with lowered threshold

     Davidson diagonalization with overlap
     ethr =  9.16E-04,  avg # of iterations =  1.0

     total cpu time spent up to now is        0.5 secs

     total energy              =     -15.71417558 Ry
     Harris-Foulkes estimate   =     -15.73248731 Ry
     estimated scf accuracy    <       0.07174575 Ry

     iteration #  2     ecut=    20.00 Ry     beta=0.60
     Davidson diagonalization with overlap
     ethr =  8.97E-04,  avg # of iterations =  1.0

     total cpu time spent up to now is        0.7 secs

     total energy              =     -15.71581412 Ry
     Harris-Foulkes estimate   =     -15.71658974 Ry
     estimated scf accuracy    <       0.00676090 Ry

     iteration #  3     ecut=    20.00 Ry     beta=0.60
     Davidson diagonalization with overlap
     ethr =  8.45E-05,  avg # of iterations =  2.0

     total cpu time spent up to now is        0.9 secs

     total energy              =     -15.71665236 Ry
     Harris-Foulkes estimate   =     -15.71670440 Ry
     estimated scf accuracy    <       0.00017224 Ry

     iteration #  4     ecut=    20.00 Ry     beta=0.60
     Davidson diagonalization with overlap
     ethr =  2.15E-06,  avg # of iterations =  2.7

     total cpu time spent up to now is        1.0 secs

     total energy              =     -15.71672224 Ry
     Harris-Foulkes estimate   =     -15.71673434 Ry
     estimated scf accuracy    <       0.00003163 Ry

     iteration #  5     ecut=    20.00 Ry     beta=0.60
     Davidson diagonalization with overlap
     ethr =  3.95E-07,  avg # of iterations =  2.1

     total cpu time spent up to now is        1.3 secs

     End of self-consistent calculation

          k =-0.0833 0.0833 0.0833 (   335 PWs)   bands (ev):

    -5.0338   6.8884   7.5986   7.5986

          k =-0.2500 0.2500-0.0833 (   353 PWs)   bands (ev):

    -4.4956   4.6905   6.1977   7.3891

          k =-0.4167 0.4167-0.2500 (   354 PWs)   bands (ev):

    -3.2422   1.5968   5.7314   6.6766

          k = 0.4167-0.4167 0.5833 (   354 PWs)   bands (ev):

    -2.3937   0.2570   5.8392   6.2360

          k = 0.2500-0.2500 0.4167 (   351 PWs)   bands (ev):

    -3.7201   2.5537   6.2782   6.4028

          k = 0.0833-0.0833 0.2500 (   345 PWs)   bands (ev):

    -4.7626   5.7971   6.8465   7.1363

          k =-0.0833 0.4167 0.0833 (   350 PWs)   bands (ev):

    -4.2244   4.6076   6.0188   6.0715

          k =-0.2500 0.5833-0.0833 (   350 PWs)   bands (ev):

    -3.1897   2.6039   4.5315   5.5959

          k = 0.5833-0.2500 0.7500 (   362 PWs)   bands (ev):

    -1.8621   0.5277   3.9115   5.3163

          k = 0.4167-0.0833 0.5833 (   354 PWs)   bands (ev):

    -2.7289   1.7944   3.7959   5.8955

          k = 0.2500 0.0833 0.4167 (   350 PWs)   bands (ev):

    -3.9670   3.6186   5.3263   6.6934

          k =-0.0833 0.7500 0.0833 (   350 PWs)   bands (ev):

    -2.3916   1.7945   4.4506   4.8675

          k = 0.7500-0.0833 0.9167 (   360 PWs)   bands (ev):

    -1.0141   0.3034   3.4407   4.3706

          k = 0.5833 0.0833 0.7500 (   363 PWs)   bands (ev):

    -1.3889   0.5857   2.9110   5.0005

          k = 0.4167 0.2500 0.5833 (   357 PWs)   bands (ev):

    -2.5795   0.8904   4.9610   6.0174

          k =-0.0833-0.9167 0.0833 (   352 PWs)   bands (ev):

    -1.1411   0.2820   4.1403   4.6276

          k =-0.2500-0.7500-0.0833 (   352 PWs)   bands (ev):

    -2.1879   1.5255   3.8519   4.7541

          k =-0.0833-0.5833 0.0833 (   349 PWs)   bands (ev):

    -3.4286   3.2790   5.0952   5.3387

          k =-0.2500 0.2500 0.2500 (   350 PWs)   bands (ev):

    -4.2344   3.5732   6.9171   6.9171

          k =-0.4167 0.4167 0.0833 (   354 PWs)   bands (ev):

    -3.4612   2.6426   4.4951   6.7416

          k = 0.4167-0.4167 0.9167 (   359 PWs)   bands (ev):

    -2.0922   1.0953   3.2037   5.8312

          k = 0.2500-0.2500 0.7500 (   354 PWs)   bands (ev):

    -2.0426   1.0110   3.7842   5.2735

          k =-0.2500 0.5833 0.2500 (   356 PWs)   bands (ev):

    -2.9732   1.7118   5.1133   5.6961

          k = 0.5833-0.2500 1.0833 (   360 PWs)   bands (ev):

    -1.8186   1.0444   3.3049   4.7328

          k = 0.4167-0.0833 0.9167 (   361 PWs)   bands (ev):

    -0.8591   0.2945   3.0508   3.9469

          k =-0.2500-1.0833 0.2500 (   362 PWs)   bands (ev):

    -1.0929   0.3467   2.9077   5.0537

          k =-0.4167 0.4167 0.4167 (   353 PWs)   bands (ev):

    -2.8441   0.7240   6.5017   6.5017

          k = 0.4167-0.4167 1.2500 (   361 PWs)   bands (ev):

    -2.1308   0.4226   4.4698   5.9809

     highest occupied level (ev):     7.5986

!    total energy              =     -15.71672667 Ry
     Harris-Foulkes estimate   =     -15.71672691 Ry
     estimated scf accuracy    <       0.00000060 Ry

     The total energy is the sum of the following terms:

     one-electron contribution =       5.85853160 Ry
     hartree contribution      =       0.97860053 Ry
     xc contribution           =      -4.96431410 Ry
     ewald contribution        =     -17.58954471 Ry

     convergence has been achieved in   5 iterations

     Writing output data file Si_exc1.save

     init_run     :      0.22s CPU      0.24s WALL (       1 calls)
     electrons    :      0.95s CPU      0.99s WALL (       1 calls)

     Called by init_run:
     wfcinit      :      0.07s CPU      0.08s WALL (       1 calls)
     potinit      :      0.01s CPU      0.01s WALL (       1 calls)

     Called by electrons:
     c_bands      :      0.73s CPU      0.77s WALL (       6 calls)
     sum_band     :      0.14s CPU      0.15s WALL (       6 calls)
     v_of_rho     :      0.06s CPU      0.07s WALL (       6 calls)
     mix_rho      :      0.01s CPU      0.00s WALL (       6 calls)

     Called by c_bands:
     init_us_2    :      0.06s CPU      0.08s WALL (     364 calls)
     cegterg      :      0.67s CPU      0.70s WALL (     168 calls)

     Called by *egterg:
     h_psi        :      0.56s CPU      0.58s WALL (     500 calls)
     g_psi        :      0.00s CPU      0.01s WALL (     304 calls)
     cdiaghg      :      0.07s CPU      0.05s WALL (     444 calls)

     Called by h_psi:
     add_vuspsi   :      0.03s CPU      0.04s WALL (     500 calls)

     General routines
     calbec       :      0.02s CPU      0.04s WALL (     500 calls)
     fft          :      0.02s CPU      0.01s WALL (      67 calls)
     fftw         :      0.49s CPU      0.45s WALL (    4560 calls)
     davcio       :      0.00s CPU      0.00s WALL (      28 calls)

     Parallel routines
     fft_scatter  :      0.06s CPU      0.06s WALL (    4627 calls)

     PWSCF        :     1.37s CPU         1.44s WALL


   This run was terminated on:  20: 6:55  11Feb2020            

=------------------------------------------------------------------------------=
   JOB DONE.
=------------------------------------------------------------------------------=
