
     Program PWSCF v.5.1 starts on 11Feb2020 at 20: 7:54 

     This program is part of the open-source Quantum ESPRESSO suite
     for quantum simulation of materials; please cite
         "P. Giannozzi et al., J. Phys.:Condens. Matter 21 395502 (2009);
          URL http://www.quantum-espresso.org", 
     in publications or presentations arising from this work. More details at
     http://www.quantum-espresso.org/quote

     Parallel version (MPI), running on     1 processors
     Waiting for input...
     Reading input from standard input

     Current dimensions of program PWSCF are:
     Max number of different atomic species (ntypx) = 10
     Max number of k-points (npk) =  40000
     Max angular momentum in pseudopotentials (lmaxx) =  3

     Subspace diagonalization in iterative solution of the eigenvalue problem:
     a serial algorithm will be used


     G-vector sticks info
     --------------------
     sticks:   dense  smooth     PW     G-vecs:    dense   smooth      PW
     Sum         301     301    109                 3479     3479     725



     bravais-lattice index     =            2
     lattice parameter (alat)  =      10.4000  a.u.
     unit-cell volume          =     281.2160 (a.u.)^3
     number of atoms/cell      =            2
     number of atomic types    =            1
     number of electrons       =         8.00
     number of Kohn-Sham states=            4
     kinetic-energy cutoff     =      20.0000  Ry
     charge density cutoff     =      80.0000  Ry
     convergence threshold     =      1.0E-06
     mixing beta               =       0.6000
     number of iterations used =            8  plain     mixing
     Exchange-correlation      =  SLA  PW   PBE  PBE ( 1  4  3  4 0)

     celldm(1)=  10.400000  celldm(2)=   0.000000  celldm(3)=   0.000000
     celldm(4)=   0.000000  celldm(5)=   0.000000  celldm(6)=   0.000000

     crystal axes: (cart. coord. in units of alat)
               a(1) = (  -0.500000   0.000000   0.500000 )  
               a(2) = (   0.000000   0.500000   0.500000 )  
               a(3) = (  -0.500000   0.500000   0.000000 )  

     reciprocal axes: (cart. coord. in units 2 pi/alat)
               b(1) = ( -1.000000 -1.000000  1.000000 )  
               b(2) = (  1.000000  1.000000  1.000000 )  
               b(3) = ( -1.000000  1.000000 -1.000000 )  


     PseudoPot. # 1 for Si read from file:
     ../pseudo/Si.pbe-rrkj.UPF
     MD5 check sum: cf7ab5690cd9a85b22c4813f7e365554
     Pseudo is Norm-conserving, Zval =  4.0
     Generated by new atomic code, or converted to UPF format
     Using radial grid of  883 points,  3 beta functions with: 
                l(1) =   0
                l(2) =   0
                l(3) =   1

     atomic species   valence    mass     pseudopotential
        Si             4.00    28.08600     Si( 1.00)

     48 Sym. Ops., with inversion, found (24 have fractional translation)



   Cartesian axes

     site n.     atom                  positions (alat units)
         1           Si  tau(   1) = (   0.0000000   0.0000000   0.0000000  )
         2           Si  tau(   2) = (   0.2500000   0.2500000   0.2500000  )

     number of k points=    28
                       cart. coord. in units 2pi/alat
        k(    1) = (  -0.0833333   0.0833333   0.0833333), wk =   0.0185185
        k(    2) = (  -0.2500000   0.2500000  -0.0833333), wk =   0.0555556
        k(    3) = (  -0.4166667   0.4166667  -0.2500000), wk =   0.0555556
        k(    4) = (   0.4166667  -0.4166667   0.5833333), wk =   0.0555556
        k(    5) = (   0.2500000  -0.2500000   0.4166667), wk =   0.0555556
        k(    6) = (   0.0833333  -0.0833333   0.2500000), wk =   0.0555556
        k(    7) = (  -0.0833333   0.4166667   0.0833333), wk =   0.0555556
        k(    8) = (  -0.2500000   0.5833333  -0.0833333), wk =   0.1111111
        k(    9) = (   0.5833333  -0.2500000   0.7500000), wk =   0.1111111
        k(   10) = (   0.4166667  -0.0833333   0.5833333), wk =   0.1111111
        k(   11) = (   0.2500000   0.0833333   0.4166667), wk =   0.1111111
        k(   12) = (  -0.0833333   0.7500000   0.0833333), wk =   0.0555556
        k(   13) = (   0.7500000  -0.0833333   0.9166667), wk =   0.1111111
        k(   14) = (   0.5833333   0.0833333   0.7500000), wk =   0.1111111
        k(   15) = (   0.4166667   0.2500000   0.5833333), wk =   0.1111111
        k(   16) = (  -0.0833333  -0.9166667   0.0833333), wk =   0.0555556
        k(   17) = (  -0.2500000  -0.7500000  -0.0833333), wk =   0.1111111
        k(   18) = (  -0.0833333  -0.5833333   0.0833333), wk =   0.0555556
        k(   19) = (  -0.2500000   0.2500000   0.2500000), wk =   0.0185185
        k(   20) = (  -0.4166667   0.4166667   0.0833333), wk =   0.0555556
        k(   21) = (   0.4166667  -0.4166667   0.9166667), wk =   0.0555556
        k(   22) = (   0.2500000  -0.2500000   0.7500000), wk =   0.0555556
        k(   23) = (  -0.2500000   0.5833333   0.2500000), wk =   0.0555556
        k(   24) = (   0.5833333  -0.2500000   1.0833333), wk =   0.1111111
        k(   25) = (   0.4166667  -0.0833333   0.9166667), wk =   0.1111111
        k(   26) = (  -0.2500000  -1.0833333   0.2500000), wk =   0.0555556
        k(   27) = (  -0.4166667   0.4166667   0.4166667), wk =   0.0185185
        k(   28) = (   0.4166667  -0.4166667   1.2500000), wk =   0.0555556

     Dense  grid:     3479 G-vectors     FFT dimensions: (  24,  24,  24)

     Largest allocated arrays     est. size (Mb)     dimensions
        Kohn-Sham Wavefunctions         0.03 Mb     (     434,    4)
        NL pseudopotentials             0.07 Mb     (     434,   10)
        Each V/rho on FFT grid          0.21 Mb     (   13824)
        Each G-vector array             0.03 Mb     (    3479)
        G-vector shells                 0.00 Mb     (      76)
     Largest temporary arrays     est. size (Mb)     dimensions
        Auxiliary wavefunctions         0.11 Mb     (     434,   16)
        Each subspace H/S matrix        0.00 Mb     (      16,   16)
        Each <psi_i|beta_j> matrix      0.00 Mb     (      10,    4)
        Arrays for rho mixing           1.69 Mb     (   13824,    8)

     Initial potential from superposition of free atoms

     starting charge    7.99889, renormalised to    8.00000
     Starting wfc are    8 randomized atomic wfcs

     total cpu time spent up to now is        0.5 secs

     per-process dynamical memory:     7.0 Mb

     Self-consistent Calculation

     iteration #  1     ecut=    20.00 Ry     beta=0.60
     Davidson diagonalization with overlap
     ethr =  1.00E-02,  avg # of iterations =  2.0

     Threshold (ethr) on eigenvalues was too large:
     Diagonalizing with lowered threshold

     Davidson diagonalization with overlap
     ethr =  6.62E-04,  avg # of iterations =  1.6

     total cpu time spent up to now is        1.2 secs

     total energy              =     -15.73973419 Ry
     Harris-Foulkes estimate   =     -15.75083496 Ry
     estimated scf accuracy    <       0.05392826 Ry

     iteration #  2     ecut=    20.00 Ry     beta=0.60
     Davidson diagonalization with overlap
     ethr =  6.74E-04,  avg # of iterations =  1.0

     total cpu time spent up to now is        1.5 secs

     total energy              =     -15.74050211 Ry
     Harris-Foulkes estimate   =     -15.74111899 Ry
     estimated scf accuracy    <       0.00591615 Ry

     iteration #  3     ecut=    20.00 Ry     beta=0.60
     Davidson diagonalization with overlap
     ethr =  7.40E-05,  avg # of iterations =  1.8

     total cpu time spent up to now is        1.9 secs

     total energy              =     -15.74100893 Ry
     Harris-Foulkes estimate   =     -15.74104270 Ry
     estimated scf accuracy    <       0.00011848 Ry

     iteration #  4     ecut=    20.00 Ry     beta=0.60
     Davidson diagonalization with overlap
     ethr =  1.48E-06,  avg # of iterations =  3.2

     total cpu time spent up to now is        2.3 secs

     total energy              =     -15.74108035 Ry
     Harris-Foulkes estimate   =     -15.74108461 Ry
     estimated scf accuracy    <       0.00001040 Ry

     iteration #  5     ecut=    20.00 Ry     beta=0.60
     Davidson diagonalization with overlap
     ethr =  1.30E-07,  avg # of iterations =  2.0

     total cpu time spent up to now is        2.7 secs

     End of self-consistent calculation

          k =-0.0833 0.0833 0.0833 (   423 PWs)   bands (ev):

    -5.7262   4.9747   5.6839   5.6840

          k =-0.2500 0.2500-0.0833 (   423 PWs)   bands (ev):

    -5.2646   2.9394   4.4951   5.4765

          k =-0.4167 0.4167-0.2500 (   421 PWs)   bands (ev):

    -4.2095   0.2636   4.0369   4.8597

          k = 0.4167-0.4167 0.5833 (   423 PWs)   bands (ev):

    -3.5405  -0.8382   4.0962   4.4934

          k = 0.2500-0.2500 0.4167 (   423 PWs)   bands (ev):

    -4.6065   1.0828   4.5559   4.5795

          k = 0.0833-0.0833 0.2500 (   424 PWs)   bands (ev):

    -5.4930   3.9223   5.0643   5.2351

          k =-0.0833 0.4167 0.0833 (   429 PWs)   bands (ev):

    -5.0309   2.7381   4.3390   4.3589

          k =-0.2500 0.5833-0.0833 (   425 PWs)   bands (ev):

    -4.1502   0.9486   3.0720   3.9836

          k = 0.5833-0.2500 0.7500 (   423 PWs)   bands (ev):

    -3.0776  -0.7334   2.4831   3.7662

          k = 0.4167-0.0833 0.5833 (   423 PWs)   bands (ev):

    -3.7702   0.2816   2.4520   4.2329

          k = 0.2500 0.0833 0.4167 (   424 PWs)   bands (ev):

    -4.8129   1.9352   3.7445   4.8730

          k =-0.0833 0.7500 0.0833 (   434 PWs)   bands (ev):

    -3.4606   0.1327   3.0388   3.3610

          k = 0.7500-0.0833 0.9167 (   426 PWs)   bands (ev):

    -2.3062  -1.1671   2.2342   2.9748

          k = 0.5833 0.0833 0.7500 (   424 PWs)   bands (ev):

    -2.6708  -0.8308   1.7668   3.5005

          k = 0.4167 0.2500 0.5833 (   428 PWs)   bands (ev):

    -3.6646  -0.3624   3.3472   4.3249

          k =-0.0833-0.9167 0.0833 (   431 PWs)   bands (ev):

    -2.3921  -1.1735   2.7787   3.1519

          k =-0.2500-0.7500-0.0833 (   424 PWs)   bands (ev):

    -3.2991  -0.0815   2.5400   3.3039

          k =-0.0833-0.5833 0.0833 (   430 PWs)   bands (ev):

    -4.3483   1.4617   3.5632   3.7710

          k =-0.2500 0.2500 0.2500 (   429 PWs)   bands (ev):

    -5.0426   1.9951   5.0893   5.0893

          k =-0.4167 0.4167 0.0833 (   422 PWs)   bands (ev):

    -4.3857   1.0723   3.0371   4.9230

          k = 0.4167-0.4167 0.9167 (   420 PWs)   bands (ev):

    -3.2489  -0.3342   1.9724   4.1664

          k = 0.2500-0.2500 0.7500 (   428 PWs)   bands (ev):

    -3.1972  -0.4116   2.4299   3.7020

          k =-0.2500 0.5833 0.2500 (   427 PWs)   bands (ev):

    -3.9764   0.2933   3.4734   4.0630

          k = 0.5833-0.2500 1.0833 (   418 PWs)   bands (ev):

    -3.0091  -0.4534   2.0703   3.3058

          k = 0.4167-0.0833 0.9167 (   423 PWs)   bands (ev):

    -2.2071  -1.1747   1.9189   2.6652

          k =-0.2500-1.0833 0.2500 (   426 PWs)   bands (ev):

    -2.4114  -1.0768   1.7968   3.5137

          k =-0.4167 0.4167 0.4167 (   422 PWs)   bands (ev):

    -3.8940  -0.4514   4.7097   4.7097

          k = 0.4167-0.4167 1.2500 (   424 PWs)   bands (ev):

    -3.3120  -0.7518   2.9379   4.2878

     highest occupied level (ev):     5.6840

!    total energy              =     -15.74108224 Ry
     Harris-Foulkes estimate   =     -15.74108239 Ry
     estimated scf accuracy    <       0.00000038 Ry

     The total energy is the sum of the following terms:

     one-electron contribution =       4.47533253 Ry
     hartree contribution      =       1.12866469 Ry
     xc contribution           =      -4.77031623 Ry
     ewald contribution        =     -16.57476322 Ry

     convergence has been achieved in   5 iterations

     Writing output data file Si_exc1.save

     init_run     :      0.41s CPU      0.42s WALL (       1 calls)
     electrons    :      2.20s CPU      2.23s WALL (       1 calls)

     Called by init_run:
     wfcinit      :      0.24s CPU      0.25s WALL (       1 calls)
     potinit      :      0.03s CPU      0.03s WALL (       1 calls)

     Called by electrons:
     c_bands      :      1.75s CPU      1.78s WALL (       6 calls)
     sum_band     :      0.32s CPU      0.34s WALL (       6 calls)
     v_of_rho     :      0.13s CPU      0.14s WALL (       6 calls)
     mix_rho      :      0.01s CPU      0.00s WALL (       6 calls)

     Called by c_bands:
     init_us_2    :      0.07s CPU      0.08s WALL (     364 calls)
     cegterg      :      1.69s CPU      1.71s WALL (     168 calls)

     Called by *egterg:
     h_psi        :      1.70s CPU      1.75s WALL (     522 calls)
     g_psi        :      0.01s CPU      0.01s WALL (     326 calls)
     cdiaghg      :      0.05s CPU      0.04s WALL (     466 calls)

     Called by h_psi:
     add_vuspsi   :      0.04s CPU      0.04s WALL (     522 calls)

     General routines
     calbec       :      0.04s CPU      0.04s WALL (     522 calls)
     fft          :      0.04s CPU      0.04s WALL (      67 calls)
     fftw         :      1.64s CPU      1.72s WALL (    4598 calls)
     davcio       :      0.00s CPU      0.00s WALL (      28 calls)

     Parallel routines
     fft_scatter  :      0.07s CPU      0.09s WALL (    4665 calls)

     PWSCF        :     2.78s CPU         2.83s WALL


   This run was terminated on:  20: 7:57  11Feb2020            

=------------------------------------------------------------------------------=
   JOB DONE.
=------------------------------------------------------------------------------=
