
     Program PWSCF v.5.1 starts on 11Feb2020 at 20: 7:36 

     This program is part of the open-source Quantum ESPRESSO suite
     for quantum simulation of materials; please cite
         "P. Giannozzi et al., J. Phys.:Condens. Matter 21 395502 (2009);
          URL http://www.quantum-espresso.org", 
     in publications or presentations arising from this work. More details at
     http://www.quantum-espresso.org/quote

     Parallel version (MPI), running on     1 processors
     Waiting for input...
     Reading input from standard input

     Current dimensions of program PWSCF are:
     Max number of different atomic species (ntypx) = 10
     Max number of k-points (npk) =  40000
     Max angular momentum in pseudopotentials (lmaxx) =  3

     Subspace diagonalization in iterative solution of the eigenvalue problem:
     a serial algorithm will be used


     G-vector sticks info
     --------------------
     sticks:   dense  smooth     PW     G-vecs:    dense   smooth      PW
     Sum         283     283     97                 3143     3143     645



     bravais-lattice index     =            2
     lattice parameter (alat)  =      10.2000  a.u.
     unit-cell volume          =     265.3020 (a.u.)^3
     number of atoms/cell      =            2
     number of atomic types    =            1
     number of electrons       =         8.00
     number of Kohn-Sham states=            4
     kinetic-energy cutoff     =      20.0000  Ry
     charge density cutoff     =      80.0000  Ry
     convergence threshold     =      1.0E-06
     mixing beta               =       0.6000
     number of iterations used =            8  plain     mixing
     Exchange-correlation      =  SLA  PW   PBE  PBE ( 1  4  3  4 0)

     celldm(1)=  10.200000  celldm(2)=   0.000000  celldm(3)=   0.000000
     celldm(4)=   0.000000  celldm(5)=   0.000000  celldm(6)=   0.000000

     crystal axes: (cart. coord. in units of alat)
               a(1) = (  -0.500000   0.000000   0.500000 )  
               a(2) = (   0.000000   0.500000   0.500000 )  
               a(3) = (  -0.500000   0.500000   0.000000 )  

     reciprocal axes: (cart. coord. in units 2 pi/alat)
               b(1) = ( -1.000000 -1.000000  1.000000 )  
               b(2) = (  1.000000  1.000000  1.000000 )  
               b(3) = ( -1.000000  1.000000 -1.000000 )  


     PseudoPot. # 1 for Si read from file:
     ../pseudo/Si.pbe-rrkj.UPF
     MD5 check sum: cf7ab5690cd9a85b22c4813f7e365554
     Pseudo is Norm-conserving, Zval =  4.0
     Generated by new atomic code, or converted to UPF format
     Using radial grid of  883 points,  3 beta functions with: 
                l(1) =   0
                l(2) =   0
                l(3) =   1

     atomic species   valence    mass     pseudopotential
        Si             4.00    28.08600     Si( 1.00)

     48 Sym. Ops., with inversion, found (24 have fractional translation)



   Cartesian axes

     site n.     atom                  positions (alat units)
         1           Si  tau(   1) = (   0.0000000   0.0000000   0.0000000  )
         2           Si  tau(   2) = (   0.2500000   0.2500000   0.2500000  )

     number of k points=    28
                       cart. coord. in units 2pi/alat
        k(    1) = (  -0.0833333   0.0833333   0.0833333), wk =   0.0185185
        k(    2) = (  -0.2500000   0.2500000  -0.0833333), wk =   0.0555556
        k(    3) = (  -0.4166667   0.4166667  -0.2500000), wk =   0.0555556
        k(    4) = (   0.4166667  -0.4166667   0.5833333), wk =   0.0555556
        k(    5) = (   0.2500000  -0.2500000   0.4166667), wk =   0.0555556
        k(    6) = (   0.0833333  -0.0833333   0.2500000), wk =   0.0555556
        k(    7) = (  -0.0833333   0.4166667   0.0833333), wk =   0.0555556
        k(    8) = (  -0.2500000   0.5833333  -0.0833333), wk =   0.1111111
        k(    9) = (   0.5833333  -0.2500000   0.7500000), wk =   0.1111111
        k(   10) = (   0.4166667  -0.0833333   0.5833333), wk =   0.1111111
        k(   11) = (   0.2500000   0.0833333   0.4166667), wk =   0.1111111
        k(   12) = (  -0.0833333   0.7500000   0.0833333), wk =   0.0555556
        k(   13) = (   0.7500000  -0.0833333   0.9166667), wk =   0.1111111
        k(   14) = (   0.5833333   0.0833333   0.7500000), wk =   0.1111111
        k(   15) = (   0.4166667   0.2500000   0.5833333), wk =   0.1111111
        k(   16) = (  -0.0833333  -0.9166667   0.0833333), wk =   0.0555556
        k(   17) = (  -0.2500000  -0.7500000  -0.0833333), wk =   0.1111111
        k(   18) = (  -0.0833333  -0.5833333   0.0833333), wk =   0.0555556
        k(   19) = (  -0.2500000   0.2500000   0.2500000), wk =   0.0185185
        k(   20) = (  -0.4166667   0.4166667   0.0833333), wk =   0.0555556
        k(   21) = (   0.4166667  -0.4166667   0.9166667), wk =   0.0555556
        k(   22) = (   0.2500000  -0.2500000   0.7500000), wk =   0.0555556
        k(   23) = (  -0.2500000   0.5833333   0.2500000), wk =   0.0555556
        k(   24) = (   0.5833333  -0.2500000   1.0833333), wk =   0.1111111
        k(   25) = (   0.4166667  -0.0833333   0.9166667), wk =   0.1111111
        k(   26) = (  -0.2500000  -1.0833333   0.2500000), wk =   0.0555556
        k(   27) = (  -0.4166667   0.4166667   0.4166667), wk =   0.0185185
        k(   28) = (   0.4166667  -0.4166667   1.2500000), wk =   0.0555556

     Dense  grid:     3143 G-vectors     FFT dimensions: (  24,  24,  24)

     Largest allocated arrays     est. size (Mb)     dimensions
        Kohn-Sham Wavefunctions         0.02 Mb     (     407,    4)
        NL pseudopotentials             0.06 Mb     (     407,   10)
        Each V/rho on FFT grid          0.21 Mb     (   13824)
        Each G-vector array             0.02 Mb     (    3143)
        G-vector shells                 0.00 Mb     (      72)
     Largest temporary arrays     est. size (Mb)     dimensions
        Auxiliary wavefunctions         0.10 Mb     (     407,   16)
        Each subspace H/S matrix        0.00 Mb     (      16,   16)
        Each <psi_i|beta_j> matrix      0.00 Mb     (      10,    4)
        Arrays for rho mixing           1.69 Mb     (   13824,    8)

     Initial potential from superposition of free atoms

     starting charge    7.99889, renormalised to    8.00000
     Starting wfc are    8 randomized atomic wfcs

     total cpu time spent up to now is        0.5 secs

     per-process dynamical memory:     7.2 Mb

     Self-consistent Calculation

     iteration #  1     ecut=    20.00 Ry     beta=0.60
     Davidson diagonalization with overlap
     ethr =  1.00E-02,  avg # of iterations =  2.0

     Threshold (ethr) on eigenvalues was too large:
     Diagonalizing with lowered threshold

     Davidson diagonalization with overlap
     ethr =  7.51E-04,  avg # of iterations =  1.1

     total cpu time spent up to now is        1.2 secs

     total energy              =     -15.73800976 Ry
     Harris-Foulkes estimate   =     -15.75124486 Ry
     estimated scf accuracy    <       0.05931402 Ry

     iteration #  2     ecut=    20.00 Ry     beta=0.60
     Davidson diagonalization with overlap
     ethr =  7.41E-04,  avg # of iterations =  1.0

     total cpu time spent up to now is        1.5 secs

     total energy              =     -15.73901151 Ry
     Harris-Foulkes estimate   =     -15.73967976 Ry
     estimated scf accuracy    <       0.00619443 Ry

     iteration #  3     ecut=    20.00 Ry     beta=0.60
     Davidson diagonalization with overlap
     ethr =  7.74E-05,  avg # of iterations =  1.9

     total cpu time spent up to now is        1.8 secs

     total energy              =     -15.73961757 Ry
     Harris-Foulkes estimate   =     -15.73965949 Ry
     estimated scf accuracy    <       0.00014096 Ry

     iteration #  4     ecut=    20.00 Ry     beta=0.60
     Davidson diagonalization with overlap
     ethr =  1.76E-06,  avg # of iterations =  2.9

     total cpu time spent up to now is        2.3 secs

     total energy              =     -15.73968321 Ry
     Harris-Foulkes estimate   =     -15.73969224 Ry
     estimated scf accuracy    <       0.00002176 Ry

     iteration #  5     ecut=    20.00 Ry     beta=0.60
     Davidson diagonalization with overlap
     ethr =  2.72E-07,  avg # of iterations =  2.0

     total cpu time spent up to now is        2.6 secs

     End of self-consistent calculation

          k =-0.0833 0.0833 0.0833 (   402 PWs)   bands (ev):

    -5.5122   5.5762   6.2768   6.2768

          k =-0.2500 0.2500-0.0833 (   389 PWs)   bands (ev):

    -5.0265   3.4934   5.0214   6.0679

          k =-0.4167 0.4167-0.2500 (   403 PWs)   bands (ev):

    -3.9092   0.6835   4.5601   5.4203

          k = 0.4167-0.4167 0.5833 (   401 PWs)   bands (ev):

    -3.1860  -0.4916   4.6339   5.0310

          k = 0.2500-0.2500 0.4167 (   399 PWs)   bands (ev):

    -4.3315   1.5467   5.0882   5.1420

          k = 0.0833-0.0833 0.2500 (   390 PWs)   bands (ev):

    -5.2671   4.5164   5.6160   5.8223

          k =-0.0833 0.4167 0.0833 (   397 PWs)   bands (ev):

    -4.7810   3.3302   4.8709   4.8723

          k =-0.2500 0.5833-0.0833 (   404 PWs)   bands (ev):

    -3.8519   1.4702   3.5200   4.4818

          k = 0.5833-0.2500 0.7500 (   402 PWs)   bands (ev):

    -2.7013  -0.3328   2.9192   4.2460

          k = 0.4167-0.0833 0.5833 (   404 PWs)   bands (ev):

    -3.4467   0.7589   2.8635   4.7469

          k = 0.2500 0.0833 0.4167 (   392 PWs)   bands (ev):

    -4.5506   2.4677   4.2319   5.4348

          k =-0.0833 0.7500 0.0833 (   405 PWs)   bands (ev):

    -3.1280   0.6516   3.4750   3.8259

          k = 0.7500-0.0833 0.9167 (   402 PWs)   bands (ev):

    -1.9041  -0.7092   2.6077   3.4062

          k = 0.5833 0.0833 0.7500 (   397 PWs)   bands (ev):

    -2.2737  -0.3853   2.1181   3.9644

          k = 0.4167 0.2500 0.5833 (   399 PWs)   bands (ev):

    -3.3280   0.0335   3.8435   4.8479

          k =-0.0833-0.9167 0.0833 (   405 PWs)   bands (ev):

    -2.0022  -0.7194   3.1991   3.6069

          k =-0.2500-0.7500-0.0833 (   405 PWs)   bands (ev):

    -2.9535   0.4207   2.9441   3.7528

          k =-0.0833-0.5833 0.0833 (   407 PWs)   bands (ev):

    -4.0628   2.0317   4.0354   4.2551

          k =-0.2500 0.2500 0.2500 (   395 PWs)   bands (ev):

    -4.7922   2.4928   5.6547   5.6547

          k =-0.4167 0.4167 0.0833 (   402 PWs)   bands (ev):

    -4.0988   1.5683   3.4850   5.4846

          k = 0.4167-0.4167 0.9167 (   401 PWs)   bands (ev):

    -2.8899   0.1169   2.3490   4.6801

          k = 0.2500-0.2500 0.7500 (   404 PWs)   bands (ev):

    -2.8386   0.0371   2.8445   4.1868

          k =-0.2500 0.5833 0.2500 (   400 PWs)   bands (ev):

    -3.6648   0.7414   3.9768   4.5676

          k = 0.5833-0.2500 1.0833 (   402 PWs)   bands (ev):

    -2.6394   0.0167   2.4485   3.7481

          k = 0.4167-0.0833 0.9167 (   401 PWs)   bands (ev):

    -1.7891  -0.7171   2.2689   3.0627

          k =-0.2500-1.0833 0.2500 (   400 PWs)   bands (ev):

    -2.0027  -0.6315   2.1403   3.9886

          k =-0.4167 0.4167 0.4167 (   404 PWs)   bands (ev):

    -3.5685  -0.0814   5.2623   5.2623

          k = 0.4167-0.4167 1.2500 (   398 PWs)   bands (ev):

    -2.9466  -0.3789   3.4083   4.8104

     highest occupied level (ev):     6.2768

!    total energy              =     -15.73968664 Ry
     Harris-Foulkes estimate   =     -15.73968695 Ry
     estimated scf accuracy    <       0.00000073 Ry

     The total energy is the sum of the following terms:

     one-electron contribution =       4.91339036 Ry
     hartree contribution      =       1.07836541 Ry
     xc contribution           =      -4.83168382 Ry
     ewald contribution        =     -16.89975859 Ry

     convergence has been achieved in   5 iterations

     Writing output data file Si_exc1.save

     init_run     :      0.38s CPU      0.39s WALL (       1 calls)
     electrons    :      2.08s CPU      2.15s WALL (       1 calls)

     Called by init_run:
     wfcinit      :      0.21s CPU      0.22s WALL (       1 calls)
     potinit      :      0.03s CPU      0.03s WALL (       1 calls)

     Called by electrons:
     c_bands      :      1.63s CPU      1.68s WALL (       6 calls)
     sum_band     :      0.37s CPU      0.38s WALL (       6 calls)
     v_of_rho     :      0.10s CPU      0.11s WALL (       6 calls)
     mix_rho      :      0.00s CPU      0.00s WALL (       6 calls)

     Called by c_bands:
     init_us_2    :      0.08s CPU      0.08s WALL (     364 calls)
     cegterg      :      1.57s CPU      1.62s WALL (     168 calls)

     Called by *egterg:
     h_psi        :      1.60s CPU      1.65s WALL (     502 calls)
     g_psi        :      0.00s CPU      0.01s WALL (     306 calls)
     cdiaghg      :      0.03s CPU      0.04s WALL (     446 calls)

     Called by h_psi:
     add_vuspsi   :      0.04s CPU      0.04s WALL (     502 calls)

     General routines
     calbec       :      0.04s CPU      0.04s WALL (     502 calls)
     fft          :      0.04s CPU      0.03s WALL (      67 calls)
     fftw         :      1.63s CPU      1.67s WALL (    4572 calls)
     davcio       :      0.00s CPU      0.00s WALL (      28 calls)

     Parallel routines
     fft_scatter  :      0.09s CPU      0.09s WALL (    4639 calls)

     PWSCF        :     2.66s CPU         2.76s WALL


   This run was terminated on:  20: 7:38  11Feb2020            

=------------------------------------------------------------------------------=
   JOB DONE.
=------------------------------------------------------------------------------=
