
     Program PWSCF v.5.1 starts on 11Feb2020 at 20: 8:15 

     This program is part of the open-source Quantum ESPRESSO suite
     for quantum simulation of materials; please cite
         "P. Giannozzi et al., J. Phys.:Condens. Matter 21 395502 (2009);
          URL http://www.quantum-espresso.org", 
     in publications or presentations arising from this work. More details at
     http://www.quantum-espresso.org/quote

     Parallel version (MPI), running on     1 processors
     Waiting for input...
     Reading input from standard input

     Current dimensions of program PWSCF are:
     Max number of different atomic species (ntypx) = 10
     Max number of k-points (npk) =  40000
     Max angular momentum in pseudopotentials (lmaxx) =  3

     Subspace diagonalization in iterative solution of the eigenvalue problem:
     a serial algorithm will be used


     G-vector sticks info
     --------------------
     sticks:   dense  smooth     PW     G-vecs:    dense   smooth      PW
     Sum         313     313    109                 3647     3647     725



     bravais-lattice index     =            2
     lattice parameter (alat)  =      10.6000  a.u.
     unit-cell volume          =     297.7540 (a.u.)^3
     number of atoms/cell      =            2
     number of atomic types    =            1
     number of electrons       =         8.00
     number of Kohn-Sham states=            4
     kinetic-energy cutoff     =      20.0000  Ry
     charge density cutoff     =      80.0000  Ry
     convergence threshold     =      1.0E-06
     mixing beta               =       0.6000
     number of iterations used =            8  plain     mixing
     Exchange-correlation      =  SLA  PW   PBE  PBE ( 1  4  3  4 0)

     celldm(1)=  10.600000  celldm(2)=   0.000000  celldm(3)=   0.000000
     celldm(4)=   0.000000  celldm(5)=   0.000000  celldm(6)=   0.000000

     crystal axes: (cart. coord. in units of alat)
               a(1) = (  -0.500000   0.000000   0.500000 )  
               a(2) = (   0.000000   0.500000   0.500000 )  
               a(3) = (  -0.500000   0.500000   0.000000 )  

     reciprocal axes: (cart. coord. in units 2 pi/alat)
               b(1) = ( -1.000000 -1.000000  1.000000 )  
               b(2) = (  1.000000  1.000000  1.000000 )  
               b(3) = ( -1.000000  1.000000 -1.000000 )  


     PseudoPot. # 1 for Si read from file:
     ../pseudo/Si.pbe-rrkj.UPF
     MD5 check sum: cf7ab5690cd9a85b22c4813f7e365554
     Pseudo is Norm-conserving, Zval =  4.0
     Generated by new atomic code, or converted to UPF format
     Using radial grid of  883 points,  3 beta functions with: 
                l(1) =   0
                l(2) =   0
                l(3) =   1

     atomic species   valence    mass     pseudopotential
        Si             4.00    28.08600     Si( 1.00)

     48 Sym. Ops., with inversion, found (24 have fractional translation)



   Cartesian axes

     site n.     atom                  positions (alat units)
         1           Si  tau(   1) = (   0.0000000   0.0000000   0.0000000  )
         2           Si  tau(   2) = (   0.2500000   0.2500000   0.2500000  )

     number of k points=    28
                       cart. coord. in units 2pi/alat
        k(    1) = (  -0.0833333   0.0833333   0.0833333), wk =   0.0185185
        k(    2) = (  -0.2500000   0.2500000  -0.0833333), wk =   0.0555556
        k(    3) = (  -0.4166667   0.4166667  -0.2500000), wk =   0.0555556
        k(    4) = (   0.4166667  -0.4166667   0.5833333), wk =   0.0555556
        k(    5) = (   0.2500000  -0.2500000   0.4166667), wk =   0.0555556
        k(    6) = (   0.0833333  -0.0833333   0.2500000), wk =   0.0555556
        k(    7) = (  -0.0833333   0.4166667   0.0833333), wk =   0.0555556
        k(    8) = (  -0.2500000   0.5833333  -0.0833333), wk =   0.1111111
        k(    9) = (   0.5833333  -0.2500000   0.7500000), wk =   0.1111111
        k(   10) = (   0.4166667  -0.0833333   0.5833333), wk =   0.1111111
        k(   11) = (   0.2500000   0.0833333   0.4166667), wk =   0.1111111
        k(   12) = (  -0.0833333   0.7500000   0.0833333), wk =   0.0555556
        k(   13) = (   0.7500000  -0.0833333   0.9166667), wk =   0.1111111
        k(   14) = (   0.5833333   0.0833333   0.7500000), wk =   0.1111111
        k(   15) = (   0.4166667   0.2500000   0.5833333), wk =   0.1111111
        k(   16) = (  -0.0833333  -0.9166667   0.0833333), wk =   0.0555556
        k(   17) = (  -0.2500000  -0.7500000  -0.0833333), wk =   0.1111111
        k(   18) = (  -0.0833333  -0.5833333   0.0833333), wk =   0.0555556
        k(   19) = (  -0.2500000   0.2500000   0.2500000), wk =   0.0185185
        k(   20) = (  -0.4166667   0.4166667   0.0833333), wk =   0.0555556
        k(   21) = (   0.4166667  -0.4166667   0.9166667), wk =   0.0555556
        k(   22) = (   0.2500000  -0.2500000   0.7500000), wk =   0.0555556
        k(   23) = (  -0.2500000   0.5833333   0.2500000), wk =   0.0555556
        k(   24) = (   0.5833333  -0.2500000   1.0833333), wk =   0.1111111
        k(   25) = (   0.4166667  -0.0833333   0.9166667), wk =   0.1111111
        k(   26) = (  -0.2500000  -1.0833333   0.2500000), wk =   0.0555556
        k(   27) = (  -0.4166667   0.4166667   0.4166667), wk =   0.0185185
        k(   28) = (   0.4166667  -0.4166667   1.2500000), wk =   0.0555556

     Dense  grid:     3647 G-vectors     FFT dimensions: (  24,  24,  24)

     Largest allocated arrays     est. size (Mb)     dimensions
        Kohn-Sham Wavefunctions         0.03 Mb     (     462,    4)
        NL pseudopotentials             0.07 Mb     (     462,   10)
        Each V/rho on FFT grid          0.21 Mb     (   13824)
        Each G-vector array             0.03 Mb     (    3647)
        G-vector shells                 0.00 Mb     (      78)
     Largest temporary arrays     est. size (Mb)     dimensions
        Auxiliary wavefunctions         0.11 Mb     (     462,   16)
        Each subspace H/S matrix        0.00 Mb     (      16,   16)
        Each <psi_i|beta_j> matrix      0.00 Mb     (      10,    4)
        Arrays for rho mixing           1.69 Mb     (   13824,    8)

     Initial potential from superposition of free atoms

     starting charge    7.99889, renormalised to    8.00000
     Starting wfc are    8 randomized atomic wfcs

     total cpu time spent up to now is        0.5 secs

     per-process dynamical memory:     7.1 Mb

     Self-consistent Calculation

     iteration #  1     ecut=    20.00 Ry     beta=0.60
     Davidson diagonalization with overlap
     ethr =  1.00E-02,  avg # of iterations =  2.0

     Threshold (ethr) on eigenvalues was too large:
     Diagonalizing with lowered threshold

     Davidson diagonalization with overlap
     ethr =  5.78E-04,  avg # of iterations =  2.1

     total cpu time spent up to now is        1.3 secs

     total energy              =     -15.73616609 Ry
     Harris-Foulkes estimate   =     -15.74537486 Ry
     estimated scf accuracy    <       0.04900792 Ry

     iteration #  2     ecut=    20.00 Ry     beta=0.60
     Davidson diagonalization with overlap
     ethr =  6.13E-04,  avg # of iterations =  1.0

     total cpu time spent up to now is        1.6 secs

     total energy              =     -15.73672099 Ry
     Harris-Foulkes estimate   =     -15.73729370 Ry
     estimated scf accuracy    <       0.00565997 Ry

     iteration #  3     ecut=    20.00 Ry     beta=0.60
     Davidson diagonalization with overlap
     ethr =  7.07E-05,  avg # of iterations =  1.5

     total cpu time spent up to now is        1.9 secs

     total energy              =     -15.73713858 Ry
     Harris-Foulkes estimate   =     -15.73716191 Ry
     estimated scf accuracy    <       0.00009072 Ry

     iteration #  4     ecut=    20.00 Ry     beta=0.60
     Davidson diagonalization with overlap
     ethr =  1.13E-06,  avg # of iterations =  3.6

     total cpu time spent up to now is        2.4 secs

     End of self-consistent calculation

          k =-0.0833 0.0833 0.0833 (   450 PWs)   bands (ev):

    -5.9274   4.3998   5.1291   5.1291

          k =-0.2500 0.2500-0.0833 (   457 PWs)   bands (ev):

    -5.4887   2.4079   4.0035   4.9241

          k =-0.4167 0.4167-0.2500 (   446 PWs)   bands (ev):

    -4.4924  -0.1381   3.5488   4.3366

          k = 0.4167-0.4167 0.5833 (   449 PWs)   bands (ev):

    -3.8729  -1.1715   3.5948   3.9917

          k = 0.2500-0.2500 0.4167 (   449 PWs)   bands (ev):

    -4.8657   0.6389   4.0548   4.0585

          k = 0.0833-0.0833 0.2500 (   462 PWs)   bands (ev):

    -5.7057   3.3499   4.5475   4.6880

          k =-0.0833 0.4167 0.0833 (   457 PWs)   bands (ev):

    -5.2662   2.1706   3.8451   3.8790

          k =-0.2500 0.5833-0.0833 (   450 PWs)   bands (ev):

    -4.4316   0.4515   2.6555   3.5183

          k = 0.5833-0.2500 0.7500 (   448 PWs)   bands (ev):

    -3.4307  -1.1189   2.0802   3.3175

          k = 0.4167-0.0833 0.5833 (   445 PWs)   bands (ev):

    -4.0752  -0.1741   2.0703   3.7527

          k = 0.2500 0.0833 0.4167 (   455 PWs)   bands (ev):

    -5.0601   1.4249   3.2906   4.3486

          k =-0.0833 0.7500 0.0833 (   451 PWs)   bands (ev):

    -3.7745  -0.3577   2.6312   2.9279

          k = 0.7500-0.0833 0.9167 (   449 PWs)   bands (ev):

    -2.6853  -1.5990   1.8845   2.5717

          k = 0.5833 0.0833 0.7500 (   450 PWs)   bands (ev):

    -3.0436  -1.2546   1.4398   3.0670

          k = 0.4167 0.2500 0.5833 (   448 PWs)   bands (ev):

    -3.9814  -0.7422   2.8863   3.8367

          k =-0.0833-0.9167 0.0833 (   454 PWs)   bands (ev):

    -2.7603  -1.6024   2.3856   2.7281

          k =-0.2500-0.7500-0.0833 (   451 PWs)   bands (ev):

    -3.6251  -0.5566   2.1631   2.8838

          k =-0.0833-0.5833 0.0833 (   449 PWs)   bands (ev):

    -4.6176   0.9207   3.1229   3.3191

          k =-0.2500 0.2500 0.2500 (   459 PWs)   bands (ev):

    -5.2784   1.5189   4.5612   4.5612

          k =-0.4167 0.4167 0.0833 (   451 PWs)   bands (ev):

    -4.6563   0.5975   2.6211   4.3984

          k = 0.4167-0.4167 0.9167 (   447 PWs)   bands (ev):

    -3.5869  -0.7648   1.6231   3.6864

          k = 0.2500-0.2500 0.7500 (   447 PWs)   bands (ev):

    -3.5349  -0.8401   2.0458   3.2493

          k =-0.2500 0.5833 0.2500 (   446 PWs)   bands (ev):

    -4.2701  -0.1360   3.0067   3.5920

          k = 0.5833-0.2500 1.0833 (   446 PWs)   bands (ev):

    -3.3573  -0.9000   1.7191   2.8912

          k = 0.4167-0.0833 0.9167 (   448 PWs)   bands (ev):

    -2.5999  -1.6064   1.5911   2.2925

          k =-0.2500-1.0833 0.2500 (   449 PWs)   bands (ev):

    -2.7955  -1.4987   1.4755   3.0703

          k =-0.4167 0.4167 0.4167 (   449 PWs)   bands (ev):

    -4.2003  -0.8054   4.1942   4.1942

          k = 0.4167-0.4167 1.2500 (   446 PWs)   bands (ev):

    -3.6547  -1.1111   2.5016   3.7999

     highest occupied level (ev):     5.1291

!    total energy              =     -15.73722293 Ry
     Harris-Foulkes estimate   =     -15.73722304 Ry
     estimated scf accuracy    <       0.00000071 Ry

     The total energy is the sum of the following terms:

     one-electron contribution =       4.05720860 Ry
     hartree contribution      =       1.17988895 Ry
     xc contribution           =      -4.71228865 Ry
     ewald contribution        =     -16.26203184 Ry

     convergence has been achieved in   4 iterations

     Writing output data file Si_exc1.save

     init_run     :      0.46s CPU      0.45s WALL (       1 calls)
     electrons    :      1.84s CPU      1.86s WALL (       1 calls)

     Called by init_run:
     wfcinit      :      0.26s CPU      0.26s WALL (       1 calls)
     potinit      :      0.02s CPU      0.02s WALL (       1 calls)

     Called by electrons:
     c_bands      :      1.46s CPU      1.48s WALL (       5 calls)
     sum_band     :      0.27s CPU      0.28s WALL (       5 calls)
     v_of_rho     :      0.11s CPU      0.11s WALL (       5 calls)
     mix_rho      :      0.00s CPU      0.00s WALL (       5 calls)

     Called by c_bands:
     init_us_2    :      0.08s CPU      0.07s WALL (     308 calls)
     cegterg      :      1.38s CPU      1.42s WALL (     140 calls)

     Called by *egterg:
     h_psi        :      1.47s CPU      1.49s WALL (     454 calls)
     g_psi        :      0.01s CPU      0.01s WALL (     286 calls)
     cdiaghg      :      0.03s CPU      0.04s WALL (     398 calls)

     Called by h_psi:
     add_vuspsi   :      0.02s CPU      0.04s WALL (     454 calls)

     General routines
     calbec       :      0.04s CPU      0.04s WALL (     454 calls)
     fft          :      0.05s CPU      0.04s WALL (      56 calls)
     fftw         :      1.46s CPU      1.46s WALL (    3922 calls)
     davcio       :      0.00s CPU      0.00s WALL (      28 calls)

     Parallel routines
     fft_scatter  :      0.09s CPU      0.08s WALL (    3978 calls)

     PWSCF        :     2.51s CPU         2.54s WALL


   This run was terminated on:  20: 8:17  11Feb2020            

=------------------------------------------------------------------------------=
   JOB DONE.
=------------------------------------------------------------------------------=
