
     Program PWSCF v.5.1 starts on 11Feb2020 at 20: 8:37 

     This program is part of the open-source Quantum ESPRESSO suite
     for quantum simulation of materials; please cite
         "P. Giannozzi et al., J. Phys.:Condens. Matter 21 395502 (2009);
          URL http://www.quantum-espresso.org", 
     in publications or presentations arising from this work. More details at
     http://www.quantum-espresso.org/quote

     Parallel version (MPI), running on     1 processors
     Waiting for input...
     Reading input from standard input

     Current dimensions of program PWSCF are:
     Max number of different atomic species (ntypx) = 10
     Max number of k-points (npk) =  40000
     Max angular momentum in pseudopotentials (lmaxx) =  3

     Subspace diagonalization in iterative solution of the eigenvalue problem:
     a serial algorithm will be used


     G-vector sticks info
     --------------------
     sticks:   dense  smooth     PW     G-vecs:    dense   smooth      PW
     Sum         313     313    109                 3839     3839     749



     bravais-lattice index     =            2
     lattice parameter (alat)  =      10.8000  a.u.
     unit-cell volume          =     314.9280 (a.u.)^3
     number of atoms/cell      =            2
     number of atomic types    =            1
     number of electrons       =         8.00
     number of Kohn-Sham states=            4
     kinetic-energy cutoff     =      20.0000  Ry
     charge density cutoff     =      80.0000  Ry
     convergence threshold     =      1.0E-06
     mixing beta               =       0.6000
     number of iterations used =            8  plain     mixing
     Exchange-correlation      =  SLA  PW   PBE  PBE ( 1  4  3  4 0)

     celldm(1)=  10.800000  celldm(2)=   0.000000  celldm(3)=   0.000000
     celldm(4)=   0.000000  celldm(5)=   0.000000  celldm(6)=   0.000000

     crystal axes: (cart. coord. in units of alat)
               a(1) = (  -0.500000   0.000000   0.500000 )  
               a(2) = (   0.000000   0.500000   0.500000 )  
               a(3) = (  -0.500000   0.500000   0.000000 )  

     reciprocal axes: (cart. coord. in units 2 pi/alat)
               b(1) = ( -1.000000 -1.000000  1.000000 )  
               b(2) = (  1.000000  1.000000  1.000000 )  
               b(3) = ( -1.000000  1.000000 -1.000000 )  


     PseudoPot. # 1 for Si read from file:
     ../pseudo/Si.pbe-rrkj.UPF
     MD5 check sum: cf7ab5690cd9a85b22c4813f7e365554
     Pseudo is Norm-conserving, Zval =  4.0
     Generated by new atomic code, or converted to UPF format
     Using radial grid of  883 points,  3 beta functions with: 
                l(1) =   0
                l(2) =   0
                l(3) =   1

     atomic species   valence    mass     pseudopotential
        Si             4.00    28.08600     Si( 1.00)

     48 Sym. Ops., with inversion, found (24 have fractional translation)



   Cartesian axes

     site n.     atom                  positions (alat units)
         1           Si  tau(   1) = (   0.0000000   0.0000000   0.0000000  )
         2           Si  tau(   2) = (   0.2500000   0.2500000   0.2500000  )

     number of k points=    28
                       cart. coord. in units 2pi/alat
        k(    1) = (  -0.0833333   0.0833333   0.0833333), wk =   0.0185185
        k(    2) = (  -0.2500000   0.2500000  -0.0833333), wk =   0.0555556
        k(    3) = (  -0.4166667   0.4166667  -0.2500000), wk =   0.0555556
        k(    4) = (   0.4166667  -0.4166667   0.5833333), wk =   0.0555556
        k(    5) = (   0.2500000  -0.2500000   0.4166667), wk =   0.0555556
        k(    6) = (   0.0833333  -0.0833333   0.2500000), wk =   0.0555556
        k(    7) = (  -0.0833333   0.4166667   0.0833333), wk =   0.0555556
        k(    8) = (  -0.2500000   0.5833333  -0.0833333), wk =   0.1111111
        k(    9) = (   0.5833333  -0.2500000   0.7500000), wk =   0.1111111
        k(   10) = (   0.4166667  -0.0833333   0.5833333), wk =   0.1111111
        k(   11) = (   0.2500000   0.0833333   0.4166667), wk =   0.1111111
        k(   12) = (  -0.0833333   0.7500000   0.0833333), wk =   0.0555556
        k(   13) = (   0.7500000  -0.0833333   0.9166667), wk =   0.1111111
        k(   14) = (   0.5833333   0.0833333   0.7500000), wk =   0.1111111
        k(   15) = (   0.4166667   0.2500000   0.5833333), wk =   0.1111111
        k(   16) = (  -0.0833333  -0.9166667   0.0833333), wk =   0.0555556
        k(   17) = (  -0.2500000  -0.7500000  -0.0833333), wk =   0.1111111
        k(   18) = (  -0.0833333  -0.5833333   0.0833333), wk =   0.0555556
        k(   19) = (  -0.2500000   0.2500000   0.2500000), wk =   0.0185185
        k(   20) = (  -0.4166667   0.4166667   0.0833333), wk =   0.0555556
        k(   21) = (   0.4166667  -0.4166667   0.9166667), wk =   0.0555556
        k(   22) = (   0.2500000  -0.2500000   0.7500000), wk =   0.0555556
        k(   23) = (  -0.2500000   0.5833333   0.2500000), wk =   0.0555556
        k(   24) = (   0.5833333  -0.2500000   1.0833333), wk =   0.1111111
        k(   25) = (   0.4166667  -0.0833333   0.9166667), wk =   0.1111111
        k(   26) = (  -0.2500000  -1.0833333   0.2500000), wk =   0.0555556
        k(   27) = (  -0.4166667   0.4166667   0.4166667), wk =   0.0185185
        k(   28) = (   0.4166667  -0.4166667   1.2500000), wk =   0.0555556

     Dense  grid:     3839 G-vectors     FFT dimensions: (  24,  24,  24)

     Largest allocated arrays     est. size (Mb)     dimensions
        Kohn-Sham Wavefunctions         0.03 Mb     (     495,    4)
        NL pseudopotentials             0.08 Mb     (     495,   10)
        Each V/rho on FFT grid          0.21 Mb     (   13824)
        Each G-vector array             0.03 Mb     (    3839)
        G-vector shells                 0.00 Mb     (      82)
     Largest temporary arrays     est. size (Mb)     dimensions
        Auxiliary wavefunctions         0.12 Mb     (     495,   16)
        Each subspace H/S matrix        0.00 Mb     (      16,   16)
        Each <psi_i|beta_j> matrix      0.00 Mb     (      10,    4)
        Arrays for rho mixing           1.69 Mb     (   13824,    8)

     Initial potential from superposition of free atoms

     starting charge    7.99889, renormalised to    8.00000
     Starting wfc are    8 randomized atomic wfcs

     total cpu time spent up to now is        0.5 secs

     per-process dynamical memory:     7.1 Mb

     Self-consistent Calculation

     iteration #  1     ecut=    20.00 Ry     beta=0.60
     Davidson diagonalization with overlap
     ethr =  1.00E-02,  avg # of iterations =  2.0

     Threshold (ethr) on eigenvalues was too large:
     Diagonalizing with lowered threshold

     Davidson diagonalization with overlap
     ethr =  5.14E-04,  avg # of iterations =  2.3

     total cpu time spent up to now is        1.2 secs

     total energy              =     -15.72823042 Ry
     Harris-Foulkes estimate   =     -15.73578207 Ry
     estimated scf accuracy    <       0.04454642 Ry

     iteration #  2     ecut=    20.00 Ry     beta=0.60
     Davidson diagonalization with overlap
     ethr =  5.57E-04,  avg # of iterations =  1.0

     total cpu time spent up to now is        1.5 secs

     total energy              =     -15.72863001 Ry
     Harris-Foulkes estimate   =     -15.72915500 Ry
     estimated scf accuracy    <       0.00539547 Ry

     iteration #  3     ecut=    20.00 Ry     beta=0.60
     Davidson diagonalization with overlap
     ethr =  6.74E-05,  avg # of iterations =  1.3

     total cpu time spent up to now is        1.8 secs

     total energy              =     -15.72897201 Ry
     Harris-Foulkes estimate   =     -15.72898837 Ry
     estimated scf accuracy    <       0.00007145 Ry

     iteration #  4     ecut=    20.00 Ry     beta=0.60
     Davidson diagonalization with overlap
     ethr =  8.93E-07,  avg # of iterations =  3.8

     total cpu time spent up to now is        2.4 secs

     End of self-consistent calculation

          k =-0.0833 0.0833 0.0833 (   495 PWs)   bands (ev):

    -6.1088   3.8542   4.6184   4.6184

          k =-0.2500 0.2500-0.0833 (   485 PWs)   bands (ev):

    -5.6918   1.9050   3.5524   4.4172

          k =-0.4167 0.4167-0.2500 (   481 PWs)   bands (ev):

    -4.7508  -0.5158   3.1014   3.8577

          k = 0.4167-0.4167 0.5833 (   473 PWs)   bands (ev):

    -4.1761  -1.4855   3.1358   3.5324

          k = 0.2500-0.2500 0.4167 (   479 PWs)   bands (ev):

    -5.1019   0.2210   3.5739   3.6023

          k = 0.0833-0.0833 0.2500 (   489 PWs)   bands (ev):

    -5.8979   2.8062   4.0724   4.1868

          k =-0.0833 0.4167 0.0833 (   482 PWs)   bands (ev):

    -5.4800   1.6356   3.3944   3.4381

          k =-0.2500 0.5833-0.0833 (   473 PWs)   bands (ev):

    -4.6887  -0.0140   2.2757   3.0918

          k = 0.5833-0.2500 0.7500 (   473 PWs)   bands (ev):

    -3.7536  -1.4819   1.7150   2.9056

          k = 0.4167-0.0833 0.5833 (   479 PWs)   bands (ev):

    -4.3543  -0.6011   1.7229   3.3122

          k = 0.2500 0.0833 0.4167 (   480 PWs)   bands (ev):

    -5.2849   0.9439   2.8754   3.8685

          k =-0.0833 0.7500 0.0833 (   467 PWs)   bands (ev):

    -4.0626  -0.8125   2.2581   2.5314

          k = 0.7500-0.0833 0.9167 (   475 PWs)   bands (ev):

    -3.0341  -1.9977   1.5638   2.2021

          k = 0.5833 0.0833 0.7500 (   473 PWs)   bands (ev):

    -3.3851  -1.6490   1.1415   2.6693

          k = 0.4167 0.2500 0.5833 (   473 PWs)   bands (ev):

    -4.2710  -1.0998   2.4658   3.3893

          k =-0.0833-0.9167 0.0833 (   467 PWs)   bands (ev):

    -3.0996  -1.9988   2.0261   2.3404

          k =-0.2500-0.7500-0.0833 (   472 PWs)   bands (ev):

    -3.9243  -0.9974   1.8186   2.4983

          k =-0.0833-0.5833 0.0833 (   475 PWs)   bands (ev):

    -4.8635   0.4159   2.7198   2.9047

          k =-0.2500 0.2500 0.2500 (   483 PWs)   bands (ev):

    -5.4926   1.0700   4.0767   4.0767

          k =-0.4167 0.4167 0.0833 (   481 PWs)   bands (ev):

    -4.9031   0.1512   2.2415   3.9179

          k = 0.4167-0.4167 0.9167 (   477 PWs)   bands (ev):

    -3.8963  -1.1675   1.3056   3.2466

          k = 0.2500-0.2500 0.7500 (   472 PWs)   bands (ev):

    -3.8445  -1.2408   1.6964   2.8351

          k =-0.2500 0.5833 0.2500 (   473 PWs)   bands (ev):

    -4.5386  -0.5397   2.5814   3.1605

          k = 0.5833-0.2500 1.0833 (   477 PWs)   bands (ev):

    -3.6766  -1.3153   1.3990   2.5102

          k = 0.4167-0.0833 0.9167 (   475 PWs)   bands (ev):

    -2.9606  -2.0049   1.2907   1.9502

          k =-0.2500-1.0833 0.2500 (   474 PWs)   bands (ev):

    -3.1478  -1.8896   1.1810   2.6648

          k =-0.4167 0.4167 0.4167 (   477 PWs)   bands (ev):

    -4.4799  -1.1379   3.7223   3.7223

          k = 0.4167-0.4167 1.2500 (   473 PWs)   bands (ev):

    -3.9677  -1.4502   2.1045   3.3530

     highest occupied level (ev):     4.6184

!    total energy              =     -15.72906001 Ry
     Harris-Foulkes estimate   =     -15.72906013 Ry
     estimated scf accuracy    <       0.00000057 Ry

     The total energy is the sum of the following terms:

     one-electron contribution =       3.65842573 Ry
     hartree contribution      =       1.23012912 Ry
     xc contribution           =      -4.65673175 Ry
     ewald contribution        =     -15.96088310 Ry

     convergence has been achieved in   4 iterations

     Writing output data file Si_exc1.save

     init_run     :      0.43s CPU      0.44s WALL (       1 calls)
     electrons    :      1.92s CPU      1.95s WALL (       1 calls)

     Called by init_run:
     wfcinit      :      0.24s CPU      0.24s WALL (       1 calls)
     potinit      :      0.03s CPU      0.03s WALL (       1 calls)

     Called by electrons:
     c_bands      :      1.52s CPU      1.55s WALL (       5 calls)
     sum_band     :      0.30s CPU      0.30s WALL (       5 calls)
     v_of_rho     :      0.12s CPU      0.12s WALL (       5 calls)
     mix_rho      :      0.01s CPU      0.01s WALL (       5 calls)

     Called by c_bands:
     init_us_2    :      0.08s CPU      0.07s WALL (     308 calls)
     cegterg      :      1.44s CPU      1.49s WALL (     140 calls)

     Called by *egterg:
     h_psi        :      1.52s CPU      1.52s WALL (     461 calls)
     g_psi        :      0.00s CPU      0.01s WALL (     293 calls)
     cdiaghg      :      0.04s CPU      0.04s WALL (     405 calls)

     Called by h_psi:
     add_vuspsi   :      0.04s CPU      0.04s WALL (     461 calls)

     General routines
     calbec       :      0.04s CPU      0.04s WALL (     461 calls)
     fft          :      0.02s CPU      0.03s WALL (      56 calls)
     fftw         :      1.49s CPU      1.46s WALL (    3956 calls)
     davcio       :      0.00s CPU      0.00s WALL (      28 calls)

     Parallel routines
     fft_scatter  :      0.07s CPU      0.08s WALL (    4012 calls)

     PWSCF        :     2.53s CPU         2.58s WALL


   This run was terminated on:  20: 8:39  11Feb2020            

=------------------------------------------------------------------------------=
   JOB DONE.
=------------------------------------------------------------------------------=
