
     Program PROJWFC v.5.1 starts on 21Apr2020 at 14:51:38 

     This program is part of the open-source Quantum ESPRESSO suite
     for quantum simulation of materials; please cite
         "P. Giannozzi et al., J. Phys.:Condens. Matter 21 395502 (2009);
          URL http://www.quantum-espresso.org", 
     in publications or presentations arising from this work. More details at
     http://www.quantum-espresso.org/quote

     Parallel version (MPI), running on     1 processors

   Info: using nr1, nr2, nr3 values from input

   Info: using nr1s, nr2s, nr3s values from input

     IMPORTANT: XC functional enforced from input :
     Exchange-correlation      = PBE ( 1  4  3  4 0)
     Any further DFT definition will be discarded
     Please, verify this is what you really want

               file C.pbe-rrkjus.UPF: wavefunction(s)  2S 2P renormalized

     G-vector sticks info
     --------------------
     sticks:   dense  smooth     PW     G-vecs:    dense   smooth      PW
     Sum         595     241     85                96043    24369    4587

     Generating pointlists ...
     new r_m :   0.2381 (alat units)  1.1104 (a.u.) for type    1

     negative rho (up, down):  7.986E-07 7.986E-07

     Gaussian broadening (read from input): ngauss,degauss=   0    0.010000


     Calling projwave .... 

     Atomic states used for projection
     (read from pseudopotential files):

     state #   1: atom   1 (C  ), wfc  1 (l=0 m= 1)
     state #   2: atom   1 (C  ), wfc  2 (l=1 m= 1)
     state #   3: atom   1 (C  ), wfc  2 (l=1 m= 2)
     state #   4: atom   1 (C  ), wfc  2 (l=1 m= 3)
     state #   5: atom   2 (C  ), wfc  1 (l=0 m= 1)
     state #   6: atom   2 (C  ), wfc  2 (l=1 m= 1)
     state #   7: atom   2 (C  ), wfc  2 (l=1 m= 2)
     state #   8: atom   2 (C  ), wfc  2 (l=1 m= 3)
     state #   9: atom   3 (C  ), wfc  1 (l=0 m= 1)
     state #  10: atom   3 (C  ), wfc  2 (l=1 m= 1)
     state #  11: atom   3 (C  ), wfc  2 (l=1 m= 2)
     state #  12: atom   3 (C  ), wfc  2 (l=1 m= 3)
     state #  13: atom   4 (C  ), wfc  1 (l=0 m= 1)
     state #  14: atom   4 (C  ), wfc  2 (l=1 m= 1)
     state #  15: atom   4 (C  ), wfc  2 (l=1 m= 2)
     state #  16: atom   4 (C  ), wfc  2 (l=1 m= 3)

 k =   0.0000000000  0.0000000000  0.0000000000
==== e(   1) =   -20.05952 eV ==== 
     psi = 0.244*[#   1]+0.244*[#   5]+0.244*[#   9]+0.244*[#  13]+
    |psi|^2 = 0.979
==== e(   2) =   -19.88787 eV ==== 
     psi = 0.246*[#   1]+0.246*[#   5]+0.246*[#   9]+0.246*[#  13]+
    |psi|^2 = 0.987
==== e(   3) =    -8.61032 eV ==== 
     psi = 0.237*[#   2]+0.237*[#   6]+0.237*[#  10]+0.237*[#  14]+
    |psi|^2 = 0.952
==== e(   4) =    -7.55306 eV ==== 
     psi = 0.240*[#   2]+0.240*[#   6]+0.240*[#  10]+0.240*[#  14]+
    |psi|^2 = 0.965
==== e(   5) =    -3.57621 eV ==== 
     psi = 0.249*[#   3]+0.249*[#   7]+0.249*[#  11]+0.249*[#  15]+
    |psi|^2 = 0.997
==== e(   6) =    -3.57265 eV ==== 
     psi = 0.249*[#   4]+0.249*[#   8]+0.249*[#  12]+0.249*[#  16]+
    |psi|^2 = 0.997
==== e(   7) =    -3.56461 eV ==== 
     psi = 0.249*[#  12]+0.249*[#  16]+0.249*[#   4]+0.249*[#   8]+
    |psi|^2 = 0.997
==== e(   8) =    -3.55637 eV ==== 
     psi = 0.249*[#   3]+0.249*[#   7]+0.249*[#  11]+0.249*[#  15]+
    |psi|^2 = 0.997
==== e(   9) =     2.93538 eV ==== 
     psi = 0.002*[#   1]+0.002*[#   5]+0.002*[#   9]+0.002*[#  13]+0.001*[#   2]+
          +0.001*[#   6]+0.001*[#  10]+0.001*[#  14]+
    |psi|^2 = 0.014
==== e(  10) =     3.30906 eV ==== 
     psi = 0.005*[#   2]+0.005*[#   6]+0.005*[#  10]+0.005*[#  14]+
    |psi|^2 = 0.021
==== e(  11) =     4.02909 eV ==== 
     psi = 
    |psi|^2 = 0.002
==== e(  12) =     5.18991 eV ==== 
     psi = 0.002*[#   2]+0.002*[#   6]+0.002*[#  10]+0.002*[#  14]+
    |psi|^2 = 0.008

 k =   0.0000000000  0.0962250449  0.0000000000
==== e(   1) =   -19.89514 eV ==== 
     psi = 0.230*[#   1]+0.230*[#   5]+0.230*[#   9]+0.230*[#  13]+0.014*[#   4]+
          +0.014*[#   8]+0.014*[#  12]+0.014*[#  16]+
    |psi|^2 = 0.979
==== e(   2) =   -19.72516 eV ==== 
     psi = 0.233*[#   1]+0.233*[#   5]+0.233*[#   9]+0.233*[#  13]+0.013*[#   4]+
          +0.013*[#   8]+0.013*[#  12]+0.013*[#  16]+
    |psi|^2 = 0.986
==== e(   3) =    -8.41228 eV ==== 
     psi = 0.238*[#   2]+0.238*[#   6]+0.238*[#  10]+0.238*[#  14]+
    |psi|^2 = 0.956
==== e(   4) =    -7.36118 eV ==== 
     psi = 0.241*[#   2]+0.241*[#   6]+0.241*[#  10]+0.241*[#  14]+
    |psi|^2 = 0.968
==== e(   5) =    -4.22260 eV ==== 
     psi = 0.241*[#   4]+0.241*[#   8]+0.241*[#  12]+0.241*[#  16]+0.009*[#   1]+
          +0.009*[#   5]+0.009*[#   9]+0.009*[#  13]+
    |psi|^2 = 0.997
==== e(   6) =    -4.20641 eV ==== 
     psi = 0.241*[#  12]+0.241*[#  16]+0.241*[#   4]+0.241*[#   8]+0.009*[#   1]+
          +0.009*[#   5]+0.009*[#   9]+0.009*[#  13]+
    |psi|^2 = 0.997
==== e(   7) =    -3.91354 eV ==== 
     psi = 0.249*[#   3]+0.249*[#   7]+0.249*[#  11]+0.249*[#  15]+
    |psi|^2 = 0.997
==== e(   8) =    -3.89217 eV ==== 
     psi = 0.249*[#   3]+0.249*[#   7]+0.249*[#  11]+0.249*[#  15]+
    |psi|^2 = 0.997
==== e(   9) =     3.15641 eV ==== 
     psi = 0.004*[#   4]+0.004*[#   8]+0.004*[#  12]+0.004*[#  16]+0.001*[#   2]+
          +0.001*[#   6]+0.001*[#  10]+0.001*[#  14]+
    |psi|^2 = 0.026
==== e(  10) =     3.53231 eV ==== 
     psi = 0.004*[#   2]+0.004*[#   6]+0.004*[#  10]+0.004*[#  14]+0.001*[#   4]+
          +0.001*[#   8]+0.001*[#  12]+0.001*[#  16]+
    |psi|^2 = 0.023
==== e(  11) =     4.25493 eV ==== 
     psi = 
    |psi|^2 = 0.005
==== e(  12) =     5.41388 eV ==== 
     psi = 0.002*[#   2]+0.002*[#   6]+0.002*[#  10]+0.002*[#  14]+
    |psi|^2 = 0.008

 k =   0.0000000000  0.1924500897  0.0000000000
==== e(   1) =   -19.40378 eV ==== 
     psi = 0.201*[#   1]+0.201*[#   5]+0.201*[#   9]+0.201*[#  13]+0.043*[#   4]+
          +0.043*[#   8]+0.043*[#  12]+0.043*[#  16]+
    |psi|^2 = 0.978
==== e(   2) =   -19.23875 eV ==== 
     psi = 0.205*[#   1]+0.205*[#   5]+0.205*[#   9]+0.205*[#  13]+0.041*[#   4]+
          +0.041*[#   8]+0.041*[#  12]+0.041*[#  16]+
    |psi|^2 = 0.985
==== e(   3) =    -7.82311 eV ==== 
     psi = 0.241*[#   2]+0.241*[#   6]+0.241*[#  10]+0.241*[#  14]+
    |psi|^2 = 0.966
==== e(   4) =    -6.79114 eV ==== 
     psi = 0.244*[#   2]+0.244*[#   6]+0.244*[#  10]+0.244*[#  14]+
    |psi|^2 = 0.978
==== e(   5) =    -5.85897 eV ==== 
     psi = 0.220*[#   4]+0.220*[#   8]+0.220*[#  12]+0.220*[#  16]+0.028*[#   1]+
          +0.028*[#   5]+0.028*[#   9]+0.028*[#  13]+
    |psi|^2 = 0.994
==== e(   6) =    -5.82420 eV ==== 
     psi = 0.221*[#   4]+0.221*[#   8]+0.221*[#  12]+0.221*[#  16]+0.028*[#   1]+
          +0.028*[#   5]+0.028*[#   9]+0.028*[#  13]+
    |psi|^2 = 0.996
==== e(   7) =    -4.70336 eV ==== 
     psi = 0.249*[#   3]+0.249*[#   7]+0.249*[#  11]+0.249*[#  15]+
    |psi|^2 = 0.997
==== e(   8) =    -4.67903 eV ==== 
     psi = 0.249*[#   3]+0.249*[#   7]+0.249*[#  11]+0.249*[#  15]+
    |psi|^2 = 0.998
==== e(   9) =     3.81915 eV ==== 
     psi = 0.009*[#   4]+0.009*[#   8]+0.009*[#  12]+0.009*[#  16]+0.001*[#   2]+
          +0.001*[#   6]+0.001*[#  10]+0.001*[#  14]+
    |psi|^2 = 0.039
==== e(  10) =     4.20088 eV ==== 
     psi = 0.003*[#   2]+0.003*[#   6]+0.003*[#  10]+0.003*[#  14]+0.003*[#   4]+
          +0.003*[#   8]+0.003*[#  12]+0.003*[#  16]+
    |psi|^2 = 0.024
==== e(  11) =     4.93248 eV ==== 
     psi = 0.002*[#   4]+0.002*[#   8]+0.002*[#  12]+0.002*[#  16]+
    |psi|^2 = 0.007
==== e(  12) =     6.08462 eV ==== 
     psi = 0.001*[#   2]+0.001*[#   6]+0.001*[#  10]+0.001*[#  14]+
    |psi|^2 = 0.007

 k =   0.0000000000  0.2886751346  0.0000000000
==== e(   1) =   -18.59141 eV ==== 
     psi = 0.173*[#   1]+0.173*[#   5]+0.173*[#   9]+0.173*[#  13]+0.071*[#   4]+
          +0.071*[#   8]+0.071*[#  12]+0.071*[#  16]+
    |psi|^2 = 0.977
==== e(   2) =   -18.43436 eV ==== 
     psi = 0.177*[#   1]+0.177*[#   5]+0.177*[#   9]+0.177*[#  13]+0.069*[#   4]+
          +0.069*[#   8]+0.069*[#  12]+0.069*[#  16]+
    |psi|^2 = 0.984
==== e(   3) =    -7.95678 eV ==== 
     psi = 0.199*[#   4]+0.199*[#   8]+0.199*[#  12]+0.199*[#  16]+0.049*[#   1]+
          +0.049*[#   5]+0.049*[#   9]+0.049*[#  13]+
    |psi|^2 = 0.991
==== e(   4) =    -7.90101 eV ==== 
     psi = 0.200*[#   4]+0.200*[#   8]+0.200*[#  12]+0.200*[#  16]+0.048*[#   1]+
          +0.048*[#   5]+0.048*[#   9]+0.048*[#  13]+
    |psi|^2 = 0.994
==== e(   5) =    -6.86043 eV ==== 
     psi = 0.245*[#   2]+0.245*[#   6]+0.245*[#  10]+0.245*[#  14]+
    |psi|^2 = 0.980
==== e(   6) =    -5.86288 eV ==== 
     psi = 0.247*[#   2]+0.247*[#   6]+0.247*[#  10]+0.247*[#  14]+
    |psi|^2 = 0.988
==== e(   7) =    -5.58012 eV ==== 
     psi = 0.249*[#   3]+0.249*[#   7]+0.249*[#  11]+0.249*[#  15]+
    |psi|^2 = 0.997
==== e(   8) =    -5.55326 eV ==== 
     psi = 0.249*[#   3]+0.249*[#   7]+0.249*[#  11]+0.249*[#  15]+
    |psi|^2 = 0.997
==== e(   9) =     4.91913 eV ==== 
     psi = 0.008*[#   4]+0.008*[#   8]+0.008*[#  12]+0.008*[#  16]+
    |psi|^2 = 0.034
==== e(  10) =     5.30463 eV ==== 
     psi = 0.003*[#   2]+0.003*[#   4]+0.003*[#   6]+0.003*[#   8]+0.003*[#  10]+
          +0.003*[#  12]+0.003*[#  14]+0.003*[#  16]+
    |psi|^2 = 0.021
==== e(  11) =     6.05989 eV ==== 
     psi = 
    |psi|^2 = 0.004
==== e(  12) =     6.52525 eV ==== 
     psi = 0.229*[#   2]+0.229*[#   6]+0.229*[#  10]+0.229*[#  14]+0.001*[#   4]+
          +0.001*[#   8]+0.001*[#  12]+0.001*[#  16]+
    |psi|^2 = 0.923

 k =   0.0000000000  0.3849001795  0.0000000000
==== e(   1) =   -17.47042 eV ==== 
     psi = 0.152*[#   1]+0.152*[#   5]+0.152*[#   9]+0.152*[#  13]+0.093*[#   4]+
          +0.093*[#   8]+0.093*[#  12]+0.093*[#  16]+
    |psi|^2 = 0.978
==== e(   2) =   -17.32393 eV ==== 
     psi = 0.155*[#   1]+0.155*[#   5]+0.155*[#   9]+0.155*[#  13]+0.091*[#   4]+
          +0.091*[#   8]+0.091*[#  12]+0.091*[#  16]+
    |psi|^2 = 0.985
==== e(   3) =   -10.15997 eV ==== 
     psi = 0.181*[#   4]+0.181*[#   8]+0.181*[#  12]+0.181*[#  16]+0.066*[#   1]+
          +0.066*[#   5]+0.066*[#   9]+0.066*[#  13]+
    |psi|^2 = 0.989
==== e(   4) =   -10.08413 eV ==== 
     psi = 0.182*[#   4]+0.182*[#   8]+0.182*[#  12]+0.182*[#  16]+0.066*[#   1]+
          +0.066*[#   5]+0.066*[#   9]+0.066*[#  13]+
    |psi|^2 = 0.992
==== e(   5) =    -6.31093 eV ==== 
     psi = 0.249*[#   3]+0.249*[#   7]+0.249*[#  11]+0.249*[#  15]+
    |psi|^2 = 0.996
==== e(   6) =    -6.28240 eV ==== 
     psi = 0.249*[#   3]+0.249*[#   7]+0.249*[#  11]+0.249*[#  15]+
    |psi|^2 = 0.997
==== e(   7) =    -5.57300 eV ==== 
     psi = 0.248*[#   2]+0.248*[#   6]+0.248*[#  10]+0.248*[#  14]+
    |psi|^2 = 0.991
==== e(   8) =    -4.62948 eV ==== 
     psi = 0.249*[#   2]+0.249*[#   6]+0.248*[#  10]+0.248*[#  14]+
    |psi|^2 = 0.995
==== e(   9) =     4.12368 eV ==== 
     psi = 0.232*[#   2]+0.232*[#   6]+0.232*[#  10]+0.232*[#  14]+
    |psi|^2 = 0.930
==== e(  10) =     4.65266 eV ==== 
     psi = 0.237*[#   2]+0.237*[#   6]+0.237*[#  10]+0.237*[#  14]+
    |psi|^2 = 0.948
==== e(  11) =     6.44473 eV ==== 
     psi = 0.003*[#   1]+0.003*[#   5]+0.003*[#   9]+0.003*[#  13]+0.002*[#   4]+
          +0.002*[#   8]+0.002*[#  12]+0.002*[#  16]+
    |psi|^2 = 0.019
==== e(  12) =     6.85053 eV ==== 
     psi = 0.016*[#   1]+0.016*[#   5]+0.016*[#   9]+0.016*[#  13]+0.003*[#   4]+
          +0.003*[#   8]+0.003*[#  12]+0.003*[#  16]+0.002*[#   2]+0.002*[#   6]+
          +0.002*[#  10]+0.002*[#  14]+
    |psi|^2 = 0.083

 k =   0.0000000000  0.4811252243  0.0000000000
==== e(   1) =   -16.07260 eV ==== 
     psi = 0.139*[#   1]+0.139*[#   5]+0.139*[#   9]+0.139*[#  13]+0.107*[#   4]+
          +0.107*[#   8]+0.107*[#  12]+0.107*[#  16]+
    |psi|^2 = 0.982
==== e(   2) =   -15.93823 eV ==== 
     psi = 0.141*[#   1]+0.141*[#   5]+0.141*[#   9]+0.141*[#  13]+0.106*[#   4]+
          +0.106*[#   8]+0.106*[#  12]+0.106*[#  16]+
    |psi|^2 = 0.987
==== e(   3) =   -12.26083 eV ==== 
     psi = 0.169*[#   4]+0.169*[#   8]+0.169*[#  12]+0.169*[#  16]+0.077*[#   1]+
          +0.077*[#   5]+0.077*[#   9]+0.077*[#  13]+
    |psi|^2 = 0.985
==== e(   4) =   -12.16710 eV ==== 
     psi = 0.169*[#   4]+0.169*[#   8]+0.169*[#  12]+0.169*[#  16]+0.078*[#   1]+
          +0.078*[#   5]+0.078*[#   9]+0.078*[#  13]+
    |psi|^2 = 0.989
==== e(   5) =    -6.78222 eV ==== 
     psi = 0.249*[#   3]+0.249*[#   7]+0.249*[#  11]+0.249*[#  15]+
    |psi|^2 = 0.996
==== e(   6) =    -6.75277 eV ==== 
     psi = 0.249*[#   3]+0.249*[#   7]+0.249*[#  11]+0.249*[#  15]+
    |psi|^2 = 0.996
==== e(   7) =    -4.11924 eV ==== 
     psi = 0.249*[#   2]+0.249*[#   6]+0.249*[#  10]+0.249*[#  14]+
    |psi|^2 = 0.996
==== e(   8) =    -3.25665 eV ==== 
     psi = 0.249*[#   2]+0.249*[#   6]+0.249*[#  10]+0.249*[#  14]+
    |psi|^2 = 0.997
==== e(   9) =     1.90650 eV ==== 
     psi = 0.234*[#   2]+0.234*[#   6]+0.234*[#  10]+0.234*[#  14]+
    |psi|^2 = 0.938
==== e(  10) =     2.62509 eV ==== 
     psi = 0.239*[#   2]+0.239*[#   6]+0.239*[#  10]+0.239*[#  14]+
    |psi|^2 = 0.955
==== e(  11) =     6.85692 eV ==== 
     psi = 0.159*[#   1]+0.159*[#   5]+0.159*[#   9]+0.159*[#  13]+0.060*[#   4]+
          +0.060*[#   8]+0.060*[#  12]+0.060*[#  16]+
    |psi|^2 = 0.878
==== e(  12) =     7.04678 eV ==== 
     psi = 0.160*[#   1]+0.160*[#   5]+0.160*[#   9]+0.160*[#  13]+0.056*[#   4]+
          +0.056*[#   8]+0.056*[#  12]+0.056*[#  16]+
    |psi|^2 = 0.865

 k =   0.0000000000 -0.5773502692  0.0000000000
==== e(   1) =   -14.81114 eV ==== 
     psi = 0.160*[#   1]+0.160*[#   5]+0.160*[#   9]+0.160*[#  13]+0.088*[#   4]+
          +0.088*[#   8]+0.088*[#  12]+0.088*[#  16]+
    |psi|^2 = 0.992
==== e(   2) =   -14.68144 eV ==== 
     psi = 0.161*[#   1]+0.161*[#   5]+0.161*[#   9]+0.161*[#  13]+0.087*[#   4]+
          +0.087*[#   8]+0.087*[#  12]+0.087*[#  16]+
    |psi|^2 = 0.994
==== e(   3) =   -13.76441 eV ==== 
     psi = 0.188*[#   4]+0.188*[#   8]+0.188*[#  12]+0.188*[#  16]+0.056*[#   1]+
          +0.056*[#   5]+0.056*[#   9]+0.056*[#  13]+
    |psi|^2 = 0.975
==== e(   4) =   -13.66417 eV ==== 
     psi = 0.189*[#   4]+0.189*[#   8]+0.189*[#  12]+0.189*[#  16]+0.057*[#   1]+
          +0.057*[#   5]+0.057*[#   9]+0.057*[#  13]+
    |psi|^2 = 0.981
==== e(   5) =    -6.94408 eV ==== 
     psi = 0.249*[#   3]+0.249*[#   7]+0.249*[#  11]+0.249*[#  15]+
    |psi|^2 = 0.996
==== e(   6) =    -6.91429 eV ==== 
     psi = 0.249*[#   3]+0.249*[#   7]+0.249*[#  11]+0.249*[#  15]+
    |psi|^2 = 0.996
==== e(   7) =    -3.24469 eV ==== 
     psi = 0.249*[#   2]+0.249*[#   6]+0.249*[#  10]+0.249*[#  14]+
    |psi|^2 = 0.998
==== e(   8) =    -2.45410 eV ==== 
     psi = 0.249*[#   2]+0.249*[#   6]+0.249*[#  10]+0.249*[#  14]+
    |psi|^2 = 0.998
==== e(   9) =     0.76240 eV ==== 
     psi = 0.235*[#   2]+0.235*[#   6]+0.235*[#  10]+0.235*[#  14]+
    |psi|^2 = 0.941
==== e(  10) =     1.58899 eV ==== 
     psi = 0.239*[#   2]+0.239*[#   6]+0.239*[#  10]+0.239*[#  14]+
    |psi|^2 = 0.956
==== e(  11) =     6.77096 eV ==== 
     psi = 0.166*[#   1]+0.166*[#   5]+0.166*[#   9]+0.166*[#  13]+0.054*[#   4]+
          +0.054*[#   8]+0.054*[#  12]+0.054*[#  16]+
    |psi|^2 = 0.882
==== e(  12) =     6.97596 eV ==== 
     psi = 0.168*[#   1]+0.168*[#   5]+0.168*[#   9]+0.168*[#  13]+0.053*[#   4]+
          +0.053*[#   8]+0.053*[#  12]+0.053*[#  16]+
    |psi|^2 = 0.885

 k =   0.0833333333  0.1443375673  0.0000000000
==== e(   1) =   -19.56724 eV ==== 
     psi = 0.209*[#   1]+0.209*[#   5]+0.209*[#   9]+0.209*[#  13]+0.026*[#   4]+
          +0.026*[#   8]+0.026*[#  12]+0.026*[#  16]+0.009*[#   3]+0.009*[#   7]+
          +0.009*[#  11]+0.009*[#  15]+
    |psi|^2 = 0.978
==== e(   2) =   -19.40062 eV ==== 
     psi = 0.213*[#   1]+0.213*[#   5]+0.213*[#   9]+0.213*[#  13]+0.025*[#   4]+
          +0.025*[#   8]+0.025*[#  12]+0.025*[#  16]+0.008*[#   3]+0.008*[#   7]+
          +0.008*[#  11]+0.008*[#  15]+
    |psi|^2 = 0.985
==== e(   3) =    -8.01818 eV ==== 
     psi = 0.240*[#   2]+0.240*[#   6]+0.240*[#  10]+0.240*[#  14]+
    |psi|^2 = 0.963
==== e(   4) =    -6.98049 eV ==== 
     psi = 0.243*[#   2]+0.243*[#   6]+0.243*[#  10]+0.243*[#  14]+
    |psi|^2 = 0.975
==== e(   5) =    -5.24517 eV ==== 
     psi = 0.165*[#   8]+0.165*[#  12]+0.162*[#   4]+0.162*[#  16]+0.067*[#   3]+
          +0.067*[#  15]+0.065*[#   7]+0.065*[#  11]+0.021*[#   5]+0.021*[#   9]+
          +0.020*[#   1]+0.020*[#  13]+
    |psi|^2 = 0.998
==== e(   6) =    -5.23762 eV ==== 
     psi = 0.165*[#  16]+0.164*[#   4]+0.162*[#  12]+0.161*[#   8]+0.067*[#   7]+
          +0.067*[#  11]+0.065*[#   3]+0.065*[#  15]+0.021*[#   1]+0.021*[#  13]+
          +0.020*[#   5]+0.020*[#   9]+
    |psi|^2 = 0.998
==== e(   7) =    -4.58101 eV ==== 
     psi = 0.172*[#   7]+0.171*[#   3]+0.171*[#  11]+0.171*[#  15]+0.075*[#   4]+
          +0.075*[#   8]+0.075*[#  12]+0.075*[#  16]+0.003*[#   5]+0.003*[#   9]+
          +0.003*[#   1]+0.003*[#  13]+
    |psi|^2 = 0.996
==== e(   8) =    -4.57215 eV ==== 
     psi = 0.179*[#  15]+0.179*[#   3]+0.179*[#  11]+0.179*[#   7]+0.066*[#   4]+
          +0.066*[#   8]+0.067*[#  12]+0.066*[#  16]+0.003*[#   1]+0.003*[#  13]+
          +0.003*[#   5]+0.003*[#   9]+
    |psi|^2 = 0.994
==== e(   9) =     3.59858 eV ==== 
     psi = 0.006*[#   4]+0.006*[#   8]+0.006*[#  12]+0.006*[#  16]+0.002*[#   3]+
          +0.002*[#   7]+0.002*[#  11]+0.002*[#  15]+0.001*[#   2]+0.001*[#   6]+
          +0.001*[#  10]+0.001*[#  14]+
    |psi|^2 = 0.038
==== e(  10) =     3.97829 eV ==== 
     psi = 0.003*[#   2]+0.003*[#   6]+0.003*[#  10]+0.003*[#  14]+0.002*[#   4]+
          +0.002*[#   8]+0.002*[#  12]+0.002*[#  16]+
    |psi|^2 = 0.024
==== e(  11) =     4.70678 eV ==== 
     psi = 0.001*[#   4]+0.001*[#   8]+0.001*[#  12]+0.001*[#  16]+
    |psi|^2 = 0.007
==== e(  12) =     5.86157 eV ==== 
     psi = 0.001*[#   2]+0.001*[#   6]+0.001*[#  10]+0.001*[#  14]+
    |psi|^2 = 0.008

 k =   0.0833333333  0.2405626122  0.0000000000
==== e(   1) =   -18.91538 eV ==== 
     psi = 0.182*[#   1]+0.182*[#   5]+0.182*[#   9]+0.182*[#  13]+0.055*[#   4]+
          +0.055*[#   8]+0.055*[#  12]+0.055*[#  16]+0.007*[#   3]+0.007*[#   7]+
          +0.007*[#  11]+0.007*[#  15]+
    |psi|^2 = 0.977
==== e(   2) =   -18.75524 eV ==== 
     psi = 0.187*[#   1]+0.187*[#   5]+0.187*[#   9]+0.187*[#  13]+0.053*[#   4]+
          +0.053*[#   8]+0.053*[#  12]+0.053*[#  16]+0.006*[#   3]+0.006*[#   7]+
          +0.006*[#  11]+0.006*[#  15]+
    |psi|^2 = 0.985
==== e(   3) =    -7.24169 eV ==== 
     psi = 0.243*[#   2]+0.243*[#   6]+0.243*[#  10]+0.243*[#  14]+
    |psi|^2 = 0.975
==== e(   4) =    -6.95839 eV ==== 
     psi = 0.196*[#   4]+0.196*[#   8]+0.196*[#  12]+0.196*[#  16]+0.039*[#   5]+
          +0.039*[#   9]+0.039*[#   1]+0.039*[#  13]+0.014*[#   3]+0.014*[#  15]+
          +0.013*[#   7]+0.013*[#  11]+
    |psi|^2 = 0.995
==== e(   5) =    -6.92435 eV ==== 
     psi = 0.195*[#   4]+0.195*[#  16]+0.195*[#   8]+0.195*[#  12]+0.039*[#   1]+
          +0.039*[#  13]+0.038*[#   5]+0.038*[#   9]+0.015*[#   7]+0.015*[#  11]+
          +0.015*[#   3]+0.015*[#  15]+
    |psi|^2 = 0.996
==== e(   6) =    -6.23008 eV ==== 
     psi = 0.246*[#   6]+0.246*[#  10]+0.246*[#   2]+0.246*[#  14]+
    |psi|^2 = 0.984
==== e(   7) =    -5.58134 eV ==== 
     psi = 0.225*[#   7]+0.225*[#  11]+0.225*[#   3]+0.225*[#  15]+0.018*[#   4]+
          +0.018*[#  16]+0.018*[#   8]+0.018*[#  12]+0.006*[#   1]+0.006*[#   5]+
          +0.006*[#   9]+0.006*[#  13]+
    |psi|^2 = 0.995
==== e(   8) =    -5.55660 eV ==== 
     psi = 0.227*[#   3]+0.227*[#  15]+0.227*[#   7]+0.227*[#  11]+0.015*[#   8]+
          +0.015*[#  12]+0.015*[#   4]+0.015*[#  16]+0.006*[#   1]+0.006*[#   5]+
          +0.006*[#   9]+0.006*[#  13]+
    |psi|^2 = 0.993
==== e(   9) =     4.48145 eV ==== 
     psi = 0.008*[#   4]+0.008*[#   8]+0.008*[#  12]+0.008*[#  16]+0.001*[#   3]+
    |psi|^2 = 0.040
==== e(  10) =     4.86750 eV ==== 
     psi = 0.003*[#   4]+0.003*[#   8]+0.003*[#  12]+0.003*[#  16]+0.002*[#   2]+
          +0.002*[#   6]+0.002*[#  10]+0.002*[#  14]+
    |psi|^2 = 0.021
==== e(  11) =     5.61030 eV ==== 
     psi = 0.001*[#   4]+0.001*[#   8]+0.001*[#  12]+0.001*[#  16]+
    |psi|^2 = 0.006
==== e(  12) =     6.75419 eV ==== 
     psi = 
    |psi|^2 = 0.006

 k =   0.0833333333  0.3367876570  0.0000000000
==== e(   1) =   -17.94852 eV ==== 
     psi = 0.159*[#   1]+0.159*[#   5]+0.159*[#   9]+0.159*[#  13]+0.080*[#   4]+
          +0.080*[#   8]+0.080*[#  12]+0.080*[#  16]+0.005*[#   3]+0.005*[#   7]+
          +0.005*[#  11]+0.005*[#  15]+
    |psi|^2 = 0.977
==== e(   2) =   -17.79770 eV ==== 
     psi = 0.163*[#   1]+0.163*[#   5]+0.163*[#   9]+0.163*[#  13]+0.078*[#   4]+
          +0.078*[#   8]+0.078*[#  12]+0.078*[#  16]+0.005*[#   3]+0.005*[#   7]+
          +0.005*[#  11]+0.005*[#  15]+
    |psi|^2 = 0.984
==== e(   3) =    -9.03495 eV ==== 
     psi = 0.187*[#   4]+0.187*[#   8]+0.187*[#  12]+0.187*[#  16]+0.058*[#   5]+
          +0.057*[#   1]+0.057*[#   9]+0.057*[#  13]+0.004*[#   3]+0.004*[#  15]+
          +0.004*[#   7]+0.004*[#  11]+
    |psi|^2 = 0.991
==== e(   4) =    -8.97361 eV ==== 
     psi = 0.187*[#   4]+0.187*[#   8]+0.187*[#  12]+0.187*[#  16]+0.057*[#   1]+
          +0.057*[#   5]+0.057*[#   9]+0.057*[#  13]+0.004*[#   7]+0.004*[#  11]+
          +0.004*[#   3]+0.004*[#  15]+
    |psi|^2 = 0.994
==== e(   5) =    -6.46760 eV ==== 
     psi = 0.237*[#   7]+0.236*[#  11]+0.236*[#   3]+0.236*[#  15]+0.007*[#   1]+
          +0.007*[#   5]+0.007*[#   9]+0.007*[#  13]+0.006*[#   4]+0.005*[#   8]+
          +0.005*[#  12]+0.006*[#  16]+
    |psi|^2 = 0.995
==== e(   6) =    -6.43432 eV ==== 
     psi = 0.237*[#   3]+0.237*[#  15]+0.237*[#   7]+0.237*[#  11]+0.007*[#   1]+
          +0.007*[#   5]+0.007*[#   9]+0.007*[#  13]+0.005*[#   4]+0.005*[#   8]+
          +0.005*[#  12]+0.005*[#  16]+
    |psi|^2 = 0.994
==== e(   7) =    -6.10954 eV ==== 
     psi = 0.247*[#   2]+0.247*[#  14]+0.247*[#   6]+0.247*[#  10]+
    |psi|^2 = 0.988
==== e(   8) =    -5.14308 eV ==== 
     psi = 0.248*[#   6]+0.248*[#  10]+0.248*[#   2]+0.248*[#  14]+
    |psi|^2 = 0.992
==== e(   9) =     5.22236 eV ==== 
     psi = 0.234*[#   2]+0.234*[#  14]+0.233*[#   6]+0.233*[#  10]+
    |psi|^2 = 0.934
==== e(  10) =     5.55853 eV ==== 
     psi = 0.232*[#   6]+0.232*[#  10]+0.232*[#   2]+0.232*[#  14]+
    |psi|^2 = 0.931
==== e(  11) =     5.80421 eV ==== 
     psi = 0.006*[#   4]+0.006*[#   8]+0.006*[#  12]+0.006*[#  16]+0.003*[#   2]+
          +0.003*[#  14]+0.002*[#   6]+0.002*[#  10]+
    |psi|^2 = 0.035
==== e(  12) =     6.21706 eV ==== 
     psi = 0.010*[#   6]+0.010*[#  10]+0.009*[#   2]+0.009*[#  14]+0.001*[#   4]+
          +0.001*[#   8]+0.001*[#  12]+0.001*[#  16]+
    |psi|^2 = 0.044

 k =   0.0833333333  0.4330127019  0.0000000000
==== e(   1) =   -16.68585 eV ==== 
     psi = 0.142*[#   1]+0.142*[#   5]+0.142*[#   9]+0.142*[#  13]+0.099*[#   4]+
          +0.099*[#   8]+0.099*[#  12]+0.099*[#  16]+0.004*[#   3]+0.004*[#   7]+
          +0.004*[#  11]+0.004*[#  15]+
    |psi|^2 = 0.979
==== e(   2) =   -16.54667 eV ==== 
     psi = 0.145*[#   1]+0.145*[#   5]+0.145*[#   9]+0.145*[#  13]+0.097*[#   4]+
          +0.097*[#   8]+0.097*[#  12]+0.097*[#  16]+0.004*[#   3]+0.004*[#   7]+
          +0.004*[#  11]+0.004*[#  15]+
    |psi|^2 = 0.986
==== e(   3) =   -11.15939 eV ==== 
     psi = 0.172*[#   4]+0.172*[#   8]+0.172*[#  12]+0.172*[#  16]+0.073*[#   1]+
          +0.073*[#   5]+0.073*[#   9]+0.073*[#  13]+0.002*[#   3]+0.002*[#   7]+
          +0.002*[#  11]+0.002*[#  15]+
    |psi|^2 = 0.988
==== e(   4) =   -11.07679 eV ==== 
     psi = 0.173*[#   4]+0.173*[#   8]+0.173*[#  12]+0.173*[#  16]+0.073*[#   1]+
          +0.073*[#   5]+0.073*[#   9]+0.073*[#  13]+0.002*[#   3]+0.002*[#   7]+
          +0.002*[#  11]+0.002*[#  15]+
    |psi|^2 = 0.991
==== e(   5) =    -7.10145 eV ==== 
     psi = 0.239*[#   7]+0.239*[#   3]+0.239*[#  11]+0.239*[#  15]+0.007*[#   1]+
          +0.007*[#   5]+0.007*[#   9]+0.007*[#  13]+0.003*[#   4]+0.003*[#   8]+
          +0.003*[#  12]+0.003*[#  16]+
    |psi|^2 = 0.995
==== e(   6) =    -7.06439 eV ==== 
     psi = 0.239*[#   3]+0.239*[#  15]+0.239*[#   7]+0.239*[#  11]+0.008*[#   1]+
          +0.008*[#   5]+0.008*[#   9]+0.008*[#  13]+0.002*[#   4]+0.002*[#   8]+
          +0.002*[#  12]+0.002*[#  16]+
    |psi|^2 = 0.995
==== e(   7) =    -4.70532 eV ==== 
     psi = 0.249*[#   2]+0.249*[#  14]+0.248*[#   6]+0.248*[#  10]+
    |psi|^2 = 0.995
==== e(   8) =    -3.80555 eV ==== 
     psi = 0.249*[#   6]+0.249*[#  10]+0.249*[#   2]+0.249*[#  14]+
    |psi|^2 = 0.996
==== e(   9) =     2.92457 eV ==== 
     psi = 0.235*[#   2]+0.235*[#  14]+0.235*[#   6]+0.235*[#  10]+
    |psi|^2 = 0.942
==== e(  10) =     3.48060 eV ==== 
     psi = 0.240*[#   6]+0.240*[#  10]+0.240*[#   2]+0.240*[#  14]+
    |psi|^2 = 0.960
==== e(  11) =     7.50930 eV ==== 
     psi = 0.015*[#   1]+0.015*[#  13]+0.015*[#   5]+0.015*[#   9]+0.001*[#   3]+
          +0.001*[#  15]+0.001*[#   7]+0.001*[#  11]+
    |psi|^2 = 0.069
==== e(  12) =     7.64627 eV ==== 
     psi = 0.129*[#   5]+0.129*[#   9]+0.129*[#   1]+0.129*[#  13]+0.057*[#   8]+
          +0.057*[#  12]+0.057*[#   4]+0.057*[#  16]+0.008*[#   7]+0.008*[#  11]+
          +0.007*[#   3]+0.007*[#  15]+
    |psi|^2 = 0.773

 k =   0.0833333333  0.5292377468  0.0000000000
==== e(   1) =   -15.20539 eV ==== 
     psi = 0.139*[#   1]+0.139*[#   5]+0.139*[#   9]+0.139*[#  13]+0.103*[#   4]+
          +0.103*[#   8]+0.103*[#  12]+0.103*[#  16]+0.004*[#   3]+0.004*[#   7]+
          +0.004*[#  11]+0.004*[#  15]+
    |psi|^2 = 0.986
==== e(   2) =   -15.07733 eV ==== 
     psi = 0.141*[#   1]+0.141*[#   5]+0.141*[#   9]+0.141*[#  13]+0.103*[#   4]+
          +0.103*[#   8]+0.103*[#  12]+0.103*[#  16]+0.004*[#   3]+0.004*[#   7]+
          +0.004*[#  11]+0.004*[#  15]+
    |psi|^2 = 0.990
==== e(   3) =   -13.10125 eV ==== 
     psi = 0.169*[#   4]+0.169*[#   8]+0.169*[#  12]+0.169*[#  16]+0.075*[#   1]+
          +0.075*[#   5]+0.075*[#   9]+0.075*[#  13]+0.001*[#   3]+0.001*[#   7]+
          +0.001*[#  11]+0.001*[#  15]+
    |psi|^2 = 0.982
==== e(   4) =   -13.00295 eV ==== 
     psi = 0.169*[#   4]+0.169*[#   8]+0.169*[#  12]+0.169*[#  16]+0.076*[#   1]+
          +0.076*[#   5]+0.076*[#   9]+0.076*[#  13]+0.001*[#   3]+0.001*[#   7]+
          +0.001*[#  11]+0.001*[#  15]+
    |psi|^2 = 0.986
==== e(   5) =    -7.42922 eV ==== 
     psi = 0.239*[#   3]+0.239*[#   7]+0.239*[#  11]+0.239*[#  15]+0.008*[#   1]+
          +0.008*[#   5]+0.008*[#   9]+0.008*[#  13]+0.002*[#   4]+0.002*[#   8]+
          +0.002*[#  12]+0.002*[#  16]+
    |psi|^2 = 0.995
==== e(   6) =    -7.39062 eV ==== 
     psi = 0.239*[#   3]+0.239*[#   7]+0.239*[#  11]+0.239*[#  15]+0.008*[#   1]+
          +0.008*[#   5]+0.008*[#   9]+0.008*[#  13]+0.002*[#   4]+0.002*[#   8]+
          +0.002*[#  12]+0.002*[#  16]+
    |psi|^2 = 0.995
==== e(   7) =    -3.36065 eV ==== 
     psi = 0.249*[#   2]+0.249*[#  14]+0.249*[#   6]+0.249*[#  10]+
    |psi|^2 = 0.997
==== e(   8) =    -2.54941 eV ==== 
     psi = 0.250*[#   6]+0.250*[#  10]+0.249*[#   2]+0.249*[#  14]+
    |psi|^2 = 0.997
==== e(   9) =     1.08434 eV ==== 
     psi = 0.236*[#   2]+0.236*[#  14]+0.236*[#   6]+0.236*[#  10]+
    |psi|^2 = 0.946
==== e(  10) =     1.80743 eV ==== 
     psi = 0.240*[#   6]+0.240*[#  10]+0.240*[#   2]+0.240*[#  14]+
    |psi|^2 = 0.961
==== e(  11) =     7.49831 eV ==== 
     psi = 0.154*[#   1]+0.154*[#  13]+0.154*[#   5]+0.154*[#   9]+0.055*[#   4]+
          +0.055*[#   8]+0.055*[#  12]+0.055*[#  16]+0.008*[#   3]+0.008*[#   7]+
          +0.008*[#  11]+0.008*[#  15]+
    |psi|^2 = 0.866
==== e(  12) =     7.71068 eV ==== 
     psi = 0.156*[#   5]+0.156*[#   9]+0.156*[#   1]+0.156*[#  13]+0.053*[#   4]+
          +0.053*[#   8]+0.053*[#  12]+0.053*[#  16]+0.008*[#   3]+0.008*[#   7]+
          +0.008*[#  11]+0.008*[#  15]+
    |psi|^2 = 0.869

 k =   0.1666666667  0.2886751346  0.0000000000
==== e(   1) =   -18.10886 eV ==== 
     psi = 0.162*[#   1]+0.162*[#   5]+0.162*[#   9]+0.162*[#  13]+0.061*[#   4]+
          +0.061*[#   8]+0.061*[#  12]+0.061*[#  16]+0.021*[#   3]+0.021*[#   7]+
          +0.021*[#  11]+0.021*[#  15]+
    |psi|^2 = 0.977
==== e(   2) =   -17.95680 eV ==== 
     psi = 0.166*[#   1]+0.166*[#   5]+0.166*[#   9]+0.166*[#  13]+0.060*[#   4]+
          +0.060*[#   8]+0.060*[#  12]+0.060*[#  16]+0.020*[#   3]+0.020*[#   7]+
          +0.020*[#  11]+0.020*[#  15]+
    |psi|^2 = 0.984
==== e(   3) =    -8.27218 eV ==== 
     psi = 0.131*[#   8]+0.131*[#  12]+0.128*[#   4]+0.128*[#  16]+0.068*[#   3]+
          +0.068*[#  15]+0.065*[#   7]+0.065*[#  11]+0.054*[#   5]+0.054*[#   9]+
          +0.052*[#   1]+0.052*[#  13]+
    |psi|^2 = 0.996
==== e(   4) =    -8.25887 eV ==== 
     psi = 0.131*[#  16]+0.131*[#   4]+0.128*[#  12]+0.128*[#   8]+0.068*[#   7]+
          +0.068*[#  11]+0.065*[#   3]+0.065*[#  15]+0.054*[#   1]+0.054*[#  13]+
          +0.052*[#   5]+0.052*[#   9]+
    |psi|^2 = 0.996
==== e(   5) =    -6.92758 eV ==== 
     psi = 0.156*[#   3]+0.156*[#   7]+0.156*[#  15]+0.156*[#  11]+0.078*[#   4]+
          +0.078*[#  16]+0.078*[#   8]+0.078*[#  12]+0.014*[#   5]+0.014*[#   9]+
          +0.012*[#   1]+0.012*[#  13]+
    |psi|^2 = 0.991
==== e(   6) =    -6.91870 eV ==== 
     psi = 0.159*[#  11]+0.159*[#   7]+0.159*[#  15]+0.159*[#   3]+0.075*[#   8]+
          +0.075*[#  12]+0.075*[#   4]+0.075*[#  16]+0.014*[#   1]+0.014*[#  13]+
          +0.013*[#   5]+0.013*[#   9]+
    |psi|^2 = 0.990
==== e(   7) =    -6.28890 eV ==== 
     psi = 0.246*[#   2]+0.246*[#  14]+0.246*[#   6]+0.246*[#  10]+
    |psi|^2 = 0.986
==== e(   8) =    -5.31962 eV ==== 
     psi = 0.248*[#   6]+0.248*[#  10]+0.247*[#   2]+0.247*[#  14]+
    |psi|^2 = 0.991
==== e(   9) =     5.58124 eV ==== 
     psi = 0.005*[#   4]+0.005*[#   8]+0.005*[#  12]+0.005*[#  16]+0.002*[#   3]+
          +0.002*[#   7]+0.002*[#  11]+0.002*[#  15]+0.002*[#   2]+0.002*[#   6]+
          +0.002*[#  10]+0.002*[#  14]+
    |psi|^2 = 0.035
==== e(  10) =     5.78254 eV ==== 
     psi = 0.241*[#   2]+0.241*[#  14]+0.235*[#   6]+0.235*[#  10]+
    |psi|^2 = 0.951
==== e(  11) =     5.88810 eV ==== 
     psi = 0.238*[#   6]+0.238*[#  10]+0.230*[#   2]+0.229*[#  14]+
    |psi|^2 = 0.936
==== e(  12) =     5.97768 eV ==== 
     psi = 0.013*[#   2]+0.013*[#  14]+0.010*[#   6]+0.010*[#  10]+0.002*[#   4]+
          +0.002*[#   8]+0.002*[#  12]+0.002*[#  16]+
    |psi|^2 = 0.058

 k =   0.1666666667  0.3849001795  0.0000000000
==== e(   1) =   -16.99876 eV ==== 
     psi = 0.144*[#   1]+0.144*[#   5]+0.144*[#   9]+0.144*[#  13]+0.084*[#   4]+
          +0.084*[#   8]+0.084*[#  12]+0.084*[#  16]+0.017*[#   3]+0.017*[#   7]+
          +0.017*[#  11]+0.017*[#  15]+
    |psi|^2 = 0.979
==== e(   2) =   -16.85733 eV ==== 
     psi = 0.148*[#   1]+0.148*[#   5]+0.148*[#   9]+0.148*[#  13]+0.082*[#   4]+
          +0.082*[#   8]+0.082*[#  12]+0.082*[#  16]+0.016*[#   3]+0.016*[#   7]+
          +0.016*[#  11]+0.016*[#  15]+
    |psi|^2 = 0.985
==== e(   3) =   -10.01191 eV ==== 
     psi = 0.164*[#   8]+0.164*[#  12]+0.164*[#   4]+0.164*[#  16]+0.068*[#   5]+
          +0.068*[#   9]+0.068*[#   1]+0.068*[#  13]+0.016*[#   3]+0.016*[#  15]+
          +0.015*[#   7]+0.015*[#  11]+
    |psi|^2 = 0.993
==== e(   4) =    -9.95805 eV ==== 
     psi = 0.163*[#   4]+0.163*[#  16]+0.162*[#   8]+0.162*[#  12]+0.069*[#   1]+
          +0.069*[#  13]+0.068*[#   5]+0.068*[#   9]+0.018*[#   7]+0.018*[#  11]+
          +0.017*[#   3]+0.017*[#  15]+
    |psi|^2 = 0.994
==== e(   5) =    -7.99346 eV ==== 
     psi = 0.207*[#   7]+0.207*[#  11]+0.207*[#   3]+0.207*[#  15]+0.024*[#   4]+
          +0.024*[#  16]+0.024*[#   8]+0.024*[#  12]+0.017*[#   5]+0.017*[#   9]+
          +0.017*[#   1]+0.017*[#  13]+
    |psi|^2 = 0.992
==== e(   6) =    -7.95488 eV ==== 
     psi = 0.209*[#   3]+0.210*[#  15]+0.209*[#   7]+0.209*[#  11]+0.020*[#   8]+
          +0.020*[#  12]+0.020*[#   4]+0.020*[#  16]+0.018*[#   1]+0.018*[#  13]+
          +0.018*[#   5]+0.018*[#   9]+
    |psi|^2 = 0.991
==== e(   7) =    -5.01497 eV ==== 
     psi = 0.249*[#   2]+0.249*[#  14]+0.248*[#   6]+0.248*[#  10]+
    |psi|^2 = 0.994
==== e(   8) =    -4.10326 eV ==== 
     psi = 0.249*[#   6]+0.249*[#  10]+0.248*[#   2]+0.248*[#  14]+
    |psi|^2 = 0.996
==== e(   9) =     3.78027 eV ==== 
     psi = 0.242*[#   2]+0.242*[#  14]+0.240*[#   6]+0.240*[#  10]+
    |psi|^2 = 0.964
==== e(  10) =     4.01746 eV ==== 
     psi = 0.244*[#   6]+0.244*[#  10]+0.243*[#   2]+0.242*[#  14]+
    |psi|^2 = 0.973
==== e(  11) =     7.11019 eV ==== 
     psi = 0.003*[#   4]+0.003*[#   8]+0.003*[#  12]+0.003*[#  16]+
    |psi|^2 = 0.017
==== e(  12) =     7.49690 eV ==== 
     psi = 
    |psi|^2 = 0.007

 k =   0.1666666667  0.4811252243  0.0000000000
==== e(   1) =   -15.62079 eV ==== 
     psi = 0.133*[#   1]+0.133*[#  13]+0.132*[#   5]+0.132*[#   9]+0.099*[#   4]+
          +0.099*[#   8]+0.099*[#  12]+0.099*[#  16]+0.015*[#   3]+0.015*[#   7]+
          +0.015*[#  11]+0.015*[#  15]+
    |psi|^2 = 0.983
==== e(   2) =   -15.49172 eV ==== 
     psi = 0.135*[#   5]+0.135*[#   9]+0.135*[#   1]+0.135*[#  13]+0.098*[#   4]+
          +0.098*[#   8]+0.098*[#  12]+0.098*[#  16]+0.014*[#   3]+0.014*[#   7]+
          +0.014*[#  11]+0.014*[#  15]+
    |psi|^2 = 0.988
==== e(   3) =   -11.92920 eV ==== 
     psi = 0.162*[#   8]+0.162*[#  12]+0.162*[#   4]+0.162*[#  16]+0.079*[#   5]+
          +0.079*[#   9]+0.078*[#   1]+0.078*[#  13]+0.007*[#   3]+0.007*[#  15]+
          +0.007*[#   7]+0.007*[#  11]+
    |psi|^2 = 0.988
==== e(   4) =   -11.84624 eV ==== 
     psi = 0.161*[#   4]+0.161*[#  16]+0.161*[#   8]+0.161*[#  12]+0.079*[#   1]+
          +0.079*[#  13]+0.079*[#   5]+0.079*[#   9]+0.007*[#   7]+0.007*[#  11]+
          +0.007*[#   3]+0.007*[#  15]+
    |psi|^2 = 0.991
==== e(   5) =    -8.57344 eV ==== 
     psi = 0.219*[#   7]+0.219*[#  11]+0.219*[#   3]+0.219*[#  15]+0.020*[#   1]+
          +0.020*[#   5]+0.020*[#   9]+0.020*[#  13]+0.010*[#   4]+0.010*[#   8]+
          +0.010*[#  12]+0.010*[#  16]+
    |psi|^2 = 0.992
==== e(   6) =    -8.52196 eV ==== 
     psi = 0.219*[#   3]+0.219*[#  15]+0.219*[#   7]+0.219*[#  11]+0.020*[#   1]+
          +0.020*[#   5]+0.020*[#   9]+0.020*[#  13]+0.008*[#   4]+0.009*[#   8]+
          +0.009*[#  12]+0.008*[#  16]+
    |psi|^2 = 0.992
==== e(   7) =    -3.55870 eV ==== 
     psi = 0.250*[#   2]+0.250*[#  14]+0.249*[#   6]+0.249*[#  10]+
    |psi|^2 = 0.996
==== e(   8) =    -2.72417 eV ==== 
     psi = 0.250*[#   6]+0.250*[#  10]+0.248*[#   2]+0.248*[#  14]+
    |psi|^2 = 0.997
==== e(   9) =     1.77980 eV ==== 
     psi = 0.241*[#   2]+0.241*[#  14]+0.240*[#   6]+0.240*[#  10]+
    |psi|^2 = 0.962
==== e(  10) =     2.21559 eV ==== 
     psi = 0.244*[#   6]+0.244*[#  10]+0.243*[#   2]+0.243*[#  14]+
    |psi|^2 = 0.975
==== e(  11) =     9.02474 eV ==== 
     psi = 0.006*[#   1]+0.006*[#  13]+0.005*[#   5]+0.005*[#   9]+0.002*[#   3]+
          +0.001*[#   7]+0.001*[#  11]+0.002*[#  15]+
    |psi|^2 = 0.030
==== e(  12) =     9.25704 eV ==== 
     psi = 0.076*[#   5]+0.076*[#   9]+0.075*[#   1]+0.075*[#  13]+0.028*[#   4]+
          +0.028*[#   8]+0.028*[#  12]+0.028*[#  16]+0.013*[#   7]+0.013*[#  11]+
          +0.013*[#   3]+0.013*[#  15]+
    |psi|^2 = 0.465

 k =   0.1666666667  0.5773502692  0.0000000000
==== e(   1) =   -14.38837 eV ==== 
     psi = 0.148*[#   1]+0.148*[#   5]+0.148*[#   9]+0.148*[#  13]+0.080*[#   4]+
          +0.080*[#   8]+0.080*[#  12]+0.080*[#  16]+0.020*[#   3]+0.020*[#   7]+
          +0.020*[#  11]+0.020*[#  15]+
    |psi|^2 = 0.992
==== e(   2) =   -14.26394 eV ==== 
     psi = 0.149*[#   1]+0.149*[#   5]+0.149*[#   9]+0.149*[#  13]+0.080*[#   4]+
          +0.080*[#   8]+0.080*[#  12]+0.080*[#  16]+0.019*[#   3]+0.019*[#   7]+
          +0.019*[#  11]+0.019*[#  15]+
    |psi|^2 = 0.994
==== e(   3) =   -13.36288 eV ==== 
     psi = 0.182*[#   4]+0.182*[#   8]+0.182*[#  12]+0.182*[#  16]+0.063*[#   1]+
          +0.063*[#   5]+0.063*[#   9]+0.063*[#  13]+
    |psi|^2 = 0.979
==== e(   4) =   -13.27093 eV ==== 
     psi = 0.182*[#   4]+0.182*[#   8]+0.182*[#  12]+0.182*[#  16]+0.064*[#   1]+
          +0.064*[#   5]+0.064*[#   9]+0.064*[#  13]+
    |psi|^2 = 0.984
==== e(   5) =    -8.75890 eV ==== 
     psi = 0.220*[#   3]+0.220*[#   7]+0.220*[#  11]+0.220*[#  15]+0.020*[#   1]+
          +0.020*[#   5]+0.020*[#   9]+0.020*[#  13]+0.007*[#   4]+0.007*[#   8]+
          +0.007*[#  12]+0.007*[#  16]+
    |psi|^2 = 0.992
==== e(   6) =    -8.70454 eV ==== 
     psi = 0.221*[#   3]+0.221*[#   7]+0.221*[#  11]+0.221*[#  15]+0.021*[#   1]+
          +0.021*[#   5]+0.021*[#   9]+0.021*[#  13]+0.006*[#   4]+0.006*[#   8]+
          +0.006*[#  12]+0.006*[#  16]+
    |psi|^2 = 0.992
==== e(   7) =    -2.64315 eV ==== 
     psi = 0.249*[#   2]+0.249*[#   6]+0.249*[#  10]+0.249*[#  14]+
    |psi|^2 = 0.998
==== e(   8) =    -1.86499 eV ==== 
     psi = 0.249*[#   2]+0.249*[#   6]+0.249*[#  10]+0.249*[#  14]+
    |psi|^2 = 0.997
==== e(   9) =     0.66590 eV ==== 
     psi = 0.240*[#   2]+0.240*[#   6]+0.240*[#  10]+0.240*[#  14]+
    |psi|^2 = 0.960
==== e(  10) =     1.20628 eV ==== 
     psi = 0.244*[#   2]+0.244*[#   6]+0.244*[#  10]+0.244*[#  14]+
    |psi|^2 = 0.975
==== e(  11) =     9.24492 eV ==== 
     psi = 0.132*[#   1]+0.132*[#   5]+0.132*[#   9]+0.132*[#  13]+0.050*[#   4]+
          +0.050*[#   8]+0.050*[#  12]+0.050*[#  16]+0.020*[#   3]+0.020*[#   7]+
          +0.020*[#  11]+0.020*[#  15]+
    |psi|^2 = 0.808
==== e(  12) =     9.52326 eV ==== 
     psi = 0.137*[#   1]+0.137*[#   5]+0.137*[#   9]+0.137*[#  13]+0.050*[#   4]+
          +0.050*[#   8]+0.050*[#  12]+0.050*[#  16]+0.021*[#   3]+0.021*[#   7]+
          +0.021*[#  11]+0.021*[#  15]+
    |psi|^2 = 0.830

 k =   0.2500000000  0.4330127019  0.0000000000
==== e(   1) =   -15.76774 eV ==== 
     psi = 0.131*[#   1]+0.131*[#  13]+0.131*[#   5]+0.131*[#   9]+0.084*[#   4]+
          +0.084*[#   8]+0.084*[#  12]+0.084*[#  16]+0.031*[#   7]+0.031*[#  11]+
          +0.030*[#   3]+0.030*[#  15]+
    |psi|^2 = 0.982
==== e(   2) =   -15.63923 eV ==== 
     psi = 0.134*[#   5]+0.134*[#   9]+0.134*[#   1]+0.134*[#  13]+0.083*[#   4]+
          +0.083*[#   8]+0.083*[#  12]+0.083*[#  16]+0.030*[#   3]+0.030*[#  15]+
          +0.030*[#   7]+0.030*[#  11]+
    |psi|^2 = 0.987
==== e(   3) =   -11.02608 eV ==== 
     psi = 0.099*[#   8]+0.099*[#  12]+0.095*[#   4]+0.095*[#  16]+0.088*[#   5]+
          +0.088*[#   9]+0.085*[#   1]+0.085*[#  13]+0.067*[#   3]+0.067*[#  15]+
          +0.062*[#   7]+0.062*[#  11]+
    |psi|^2 = 0.994
==== e(   4) =   -11.00754 eV ==== 
     psi = 0.099*[#   4]+0.099*[#  16]+0.095*[#   8]+0.095*[#  12]+0.088*[#   1]+
          +0.088*[#  13]+0.085*[#   5]+0.085*[#   9]+0.067*[#   7]+0.067*[#  11]+
          +0.062*[#   3]+0.062*[#  15]+
    |psi|^2 = 0.994
==== e(   5) =    -9.45612 eV ==== 
     psi = 0.150*[#   3]+0.150*[#  15]+0.147*[#   7]+0.147*[#  11]+0.082*[#   8]+
          +0.082*[#  12]+0.080*[#   4]+0.080*[#  16]+0.019*[#   5]+0.019*[#   9]+
          +0.015*[#   1]+0.015*[#  13]+
    |psi|^2 = 0.987
==== e(   6) =    -9.44274 eV ==== 
     psi = 0.151*[#   7]+0.151*[#  11]+0.148*[#   3]+0.148*[#  15]+0.081*[#   4]+
          +0.081*[#  16]+0.080*[#   8]+0.080*[#  12]+0.019*[#   1]+0.019*[#  13]+
          +0.015*[#   5]+0.015*[#   9]+
    |psi|^2 = 0.988
==== e(   7) =    -3.63408 eV ==== 
     psi = 0.250*[#   2]+0.250*[#  14]+0.248*[#   6]+0.248*[#  10]+
    |psi|^2 = 0.996
==== e(   8) =    -2.82037 eV ==== 
     psi = 0.251*[#   6]+0.251*[#  10]+0.247*[#   2]+0.247*[#  14]+
    |psi|^2 = 0.996
==== e(   9) =     2.22357 eV ==== 
     psi = 0.252*[#   2]+0.252*[#  14]+0.238*[#   6]+0.238*[#  10]+
    |psi|^2 = 0.980
==== e(  10) =     2.36038 eV ==== 
     psi = 0.251*[#   6]+0.251*[#  10]+0.239*[#   2]+0.239*[#  14]+
    |psi|^2 = 0.981
==== e(  11) =     8.82073 eV ==== 
     psi = 0.001*[#   1]+0.001*[#   4]+0.001*[#   8]+0.001*[#  12]+0.001*[#  13]+
          +0.001*[#  16]+
    |psi|^2 = 0.010
==== e(  12) =     9.13737 eV ==== 
     psi = 
    |psi|^2 = 0.004

 k =   0.2500000000  0.5292377468  0.0000000000
==== e(   1) =   -14.34385 eV ==== 
     psi = 0.126*[#   1]+0.126*[#  13]+0.126*[#   5]+0.126*[#   9]+0.090*[#   8]+
          +0.090*[#  12]+0.090*[#   4]+0.090*[#  16]+0.031*[#   7]+0.031*[#  11]+
          +0.031*[#   3]+0.031*[#  15]+
    |psi|^2 = 0.988
==== e(   2) =   -14.22772 eV ==== 
     psi = 0.128*[#   5]+0.128*[#   9]+0.127*[#   1]+0.127*[#  13]+0.090*[#   4]+
          +0.090*[#  16]+0.090*[#   8]+0.090*[#  12]+0.031*[#   3]+0.031*[#  15]+
          +0.031*[#   7]+0.031*[#  11]+
    |psi|^2 = 0.991
==== e(   3) =   -12.46528 eV ==== 
     psi = 0.142*[#   8]+0.142*[#  12]+0.141*[#   4]+0.141*[#  16]+0.091*[#   1]+
          +0.091*[#   5]+0.091*[#   9]+0.091*[#  13]+0.015*[#   3]+0.015*[#  15]+
          +0.015*[#   7]+0.015*[#  11]+
    |psi|^2 = 0.989
==== e(   4) =   -12.39922 eV ==== 
     psi = 0.138*[#   4]+0.138*[#  16]+0.137*[#   8]+0.137*[#  12]+0.093*[#   1]+
          +0.093*[#  13]+0.093*[#   5]+0.093*[#   9]+0.017*[#   7]+0.017*[#  11]+
          +0.017*[#   3]+0.017*[#  15]+
    |psi|^2 = 0.992
==== e(   5) =   -10.17962 eV ==== 
     psi = 0.195*[#   3]+0.195*[#  15]+0.194*[#   7]+0.194*[#  11]+0.033*[#   8]+
          +0.033*[#  12]+0.033*[#   4]+0.033*[#  16]+0.019*[#   5]+0.019*[#   9]+
          +0.019*[#   1]+0.019*[#  13]+
    |psi|^2 = 0.987
==== e(   6) =   -10.12869 eV ==== 
     psi = 0.197*[#   7]+0.197*[#  11]+0.196*[#   3]+0.197*[#  15]+0.029*[#   4]+
          +0.029*[#  16]+0.029*[#   8]+0.029*[#  12]+0.021*[#   1]+0.021*[#  13]+
          +0.021*[#   5]+0.021*[#   9]+
    |psi|^2 = 0.987
==== e(   7) =    -2.22546 eV ==== 
     psi = 0.251*[#   2]+0.251*[#  14]+0.247*[#   6]+0.247*[#  10]+
    |psi|^2 = 0.996
==== e(   8) =    -1.47336 eV ==== 
     psi = 0.253*[#   6]+0.253*[#  10]+0.245*[#   2]+0.245*[#  14]+
    |psi|^2 = 0.996
==== e(   9) =     0.67054 eV ==== 
     psi = 0.254*[#   2]+0.254*[#  14]+0.237*[#   6]+0.237*[#  10]+
    |psi|^2 = 0.982
==== e(  10) =     0.88264 eV ==== 
     psi = 0.254*[#   6]+0.254*[#  10]+0.239*[#   2]+0.239*[#  14]+
    |psi|^2 = 0.987
==== e(  11) =    10.17871 eV ==== 
     psi = 0.006*[#   1]+0.006*[#  13]+0.005*[#   5]+0.005*[#   9]+0.002*[#   6]+
          +0.002*[#  10]+0.002*[#   7]+0.002*[#  11]+0.001*[#   2]+0.001*[#  14]+
          +0.001*[#   3]+0.001*[#  15]+0.001*[#   8]+0.001*[#  12]+
    |psi|^2 = 0.038
==== e(  12) =    10.49590 eV ==== 
     psi = 0.011*[#   5]+0.011*[#   9]+0.010*[#   1]+0.010*[#  13]+0.003*[#   3]+
          +0.003*[#   7]+0.003*[#  11]+0.003*[#  15]+0.002*[#   4]+0.002*[#   8]+
          +0.002*[#  12]+0.002*[#  16]+
    |psi|^2 = 0.063

 k =   0.3333333333  0.5773502692  0.0000000000
==== e(   1) =   -13.12704 eV ==== 
     psi = 0.120*[#   1]+0.120*[#   5]+0.120*[#   9]+0.120*[#  13]+0.064*[#   3]+
          +0.064*[#   4]+0.064*[#   7]+0.064*[#   8]+0.064*[#  11]+0.064*[#  12]+
          +0.064*[#  15]+0.064*[#  16]+
    |psi|^2 = 0.992
==== e(   2) =   -13.09547 eV ==== 
     psi = 0.120*[#   1]+0.120*[#   5]+0.120*[#   9]+0.120*[#  13]+0.067*[#   3]+
          +0.067*[#   7]+0.067*[#  11]+0.067*[#  15]+0.061*[#   4]+0.061*[#   8]+
          +0.061*[#  12]+0.061*[#  16]+
    |psi|^2 = 0.993
==== e(   3) =   -13.05305 eV ==== 
     psi = 0.120*[#   1]+0.120*[#   5]+0.120*[#   9]+0.120*[#  13]+0.067*[#   4]+
          +0.067*[#   8]+0.067*[#  12]+0.067*[#  16]+0.061*[#   3]+0.061*[#   7]+
          +0.061*[#  11]+0.061*[#  15]+
    |psi|^2 = 0.993
==== e(   4) =   -13.01743 eV ==== 
     psi = 0.121*[#   1]+0.121*[#   5]+0.121*[#   9]+0.121*[#  13]+0.064*[#   3]+
          +0.064*[#   4]+0.064*[#   7]+0.064*[#   8]+0.064*[#  11]+0.064*[#  12]+
          +0.064*[#  15]+0.064*[#  16]+
    |psi|^2 = 0.994
==== e(   5) =   -11.05953 eV ==== 
     psi = 0.126*[#   3]+0.126*[#   7]+0.126*[#  11]+0.126*[#  15]+0.119*[#   4]+
          +0.119*[#   8]+0.119*[#  12]+0.119*[#  16]+
    |psi|^2 = 0.980
==== e(   6) =   -11.03126 eV ==== 
     psi = 0.126*[#   4]+0.126*[#   8]+0.126*[#  12]+0.126*[#  16]+0.119*[#   3]+
          +0.119*[#   7]+0.120*[#  11]+0.120*[#  15]+
    |psi|^2 = 0.982
==== e(   7) =    -0.86628 eV ==== 
     psi = 0.248*[#   2]+0.248*[#   6]+0.248*[#  10]+0.248*[#  14]+
    |psi|^2 = 0.994
==== e(   8) =    -0.65917 eV ==== 
     psi = 0.248*[#   2]+0.248*[#   6]+0.248*[#  10]+0.248*[#  14]+
    |psi|^2 = 0.993
==== e(   9) =    -0.37274 eV ==== 
     psi = 0.248*[#   2]+0.248*[#   6]+0.248*[#  10]+0.248*[#  14]+
    |psi|^2 = 0.993
==== e(  10) =    -0.12911 eV ==== 
     psi = 0.248*[#   2]+0.248*[#   6]+0.248*[#  10]+0.248*[#  14]+
    |psi|^2 = 0.993
==== e(  11) =     9.72570 eV ==== 
     psi = 0.002*[#   1]+0.002*[#   5]+0.002*[#   9]+0.002*[#  13]+
    |psi|^2 = 0.012
==== e(  12) =    10.46065 eV ==== 
     psi = 0.004*[#   1]+0.004*[#   5]+0.004*[#   9]+0.004*[#  13]+0.001*[#   3]+
          +0.001*[#   7]+0.001*[#  11]+0.001*[#  15]+
    |psi|^2 = 0.027

 k =  -0.0833333333  0.0481125224  0.0000000000
==== e(   1) =   -19.89512 eV ==== 
     psi = 0.230*[#   1]+0.230*[#   5]+0.230*[#   9]+0.230*[#  13]+0.010*[#   3]+
          +0.010*[#   7]+0.010*[#  11]+0.010*[#  15]+0.003*[#   4]+0.003*[#   8]+
          +0.003*[#  12]+0.003*[#  16]+
    |psi|^2 = 0.979
==== e(   2) =   -19.72517 eV ==== 
     psi = 0.233*[#   1]+0.233*[#   5]+0.233*[#   9]+0.233*[#  13]+0.010*[#   3]+
          +0.010*[#   7]+0.010*[#  11]+0.010*[#  15]+0.003*[#   4]+0.003*[#   8]+
          +0.003*[#  12]+0.003*[#  16]+
    |psi|^2 = 0.986
==== e(   3) =    -8.41199 eV ==== 
     psi = 0.238*[#   2]+0.238*[#   6]+0.238*[#  10]+0.238*[#  14]+
    |psi|^2 = 0.956
==== e(   4) =    -7.36152 eV ==== 
     psi = 0.241*[#   2]+0.241*[#   6]+0.241*[#  10]+0.241*[#  14]+
    |psi|^2 = 0.968
==== e(   5) =    -4.22375 eV ==== 
     psi = 0.184*[#   7]+0.184*[#  11]+0.183*[#   3]+0.183*[#  15]+0.058*[#   4]+
          +0.058*[#  16]+0.057*[#   8]+0.057*[#  12]+0.009*[#   5]+0.009*[#   9]+
          +0.009*[#   1]+0.009*[#  13]+
    |psi|^2 = 0.997
==== e(   6) =    -4.20235 eV ==== 
     psi = 0.176*[#   3]+0.176*[#  15]+0.176*[#   7]+0.176*[#  11]+0.065*[#   8]+
          +0.065*[#  12]+0.064*[#   4]+0.064*[#  16]+0.009*[#   1]+0.009*[#  13]+
          +0.009*[#   5]+0.009*[#   9]+
    |psi|^2 = 0.997
==== e(   7) =    -3.90584 eV ==== 
     psi = 0.187*[#   4]+0.186*[#  16]+0.184*[#   8]+0.183*[#  12]+0.066*[#   7]+
          +0.066*[#  11]+0.063*[#   3]+0.062*[#  15]+
    |psi|^2 = 0.997
==== e(   8) =    -3.90288 eV ==== 
     psi = 0.189*[#  12]+0.188*[#   8]+0.186*[#  16]+0.185*[#   4]+0.064*[#  15]+
          +0.064*[#   3]+0.061*[#  11]+0.061*[#   7]+
    |psi|^2 = 0.997
==== e(   9) =     3.15641 eV ==== 
     psi = 0.003*[#   3]+0.003*[#   7]+0.003*[#  11]+0.003*[#  15]+0.001*[#   2]+
          +0.001*[#   6]+0.001*[#  10]+0.001*[#  14]+
    |psi|^2 = 0.026
==== e(  10) =     3.53223 eV ==== 
     psi = 0.004*[#   2]+0.004*[#   6]+0.004*[#  10]+0.004*[#  14]+
    |psi|^2 = 0.023
==== e(  11) =     4.25492 eV ==== 
     psi = 
    |psi|^2 = 0.005
==== e(  12) =     5.41380 eV ==== 
     psi = 0.002*[#   2]+0.002*[#   6]+0.002*[#  10]+0.002*[#  14]+
    |psi|^2 = 0.008

 k =   0.0833333333  0.0481125224  0.0000000000
==== e(   1) =   -19.89512 eV ==== 
     psi = 0.230*[#   1]+0.230*[#   5]+0.230*[#   9]+0.230*[#  13]+0.010*[#   3]+
          +0.010*[#   7]+0.010*[#  11]+0.010*[#  15]+0.003*[#   4]+0.003*[#   8]+
          +0.003*[#  12]+0.003*[#  16]+
    |psi|^2 = 0.979
==== e(   2) =   -19.72517 eV ==== 
     psi = 0.233*[#   1]+0.233*[#   5]+0.233*[#   9]+0.233*[#  13]+0.010*[#   3]+
          +0.010*[#   7]+0.010*[#  11]+0.010*[#  15]+0.003*[#   4]+0.003*[#   8]+
          +0.003*[#  12]+0.003*[#  16]+
    |psi|^2 = 0.986
==== e(   3) =    -8.41199 eV ==== 
     psi = 0.238*[#   2]+0.238*[#   6]+0.238*[#  10]+0.238*[#  14]+
    |psi|^2 = 0.956
==== e(   4) =    -7.36152 eV ==== 
     psi = 0.241*[#   2]+0.241*[#   6]+0.241*[#  10]+0.241*[#  14]+
    |psi|^2 = 0.968
==== e(   5) =    -4.22375 eV ==== 
     psi = 0.184*[#   3]+0.184*[#  15]+0.183*[#   7]+0.183*[#  11]+0.058*[#   8]+
          +0.058*[#  12]+0.057*[#   4]+0.057*[#  16]+0.009*[#   1]+0.009*[#  13]+
          +0.009*[#   5]+0.009*[#   9]+
    |psi|^2 = 0.997
==== e(   6) =    -4.20235 eV ==== 
     psi = 0.176*[#   7]+0.176*[#  11]+0.176*[#   3]+0.176*[#  15]+0.065*[#   4]+
          +0.065*[#  16]+0.064*[#   8]+0.064*[#  12]+0.009*[#   5]+0.009*[#   9]+
          +0.009*[#   1]+0.009*[#  13]+
    |psi|^2 = 0.997
==== e(   7) =    -3.90584 eV ==== 
     psi = 0.187*[#   8]+0.187*[#  12]+0.184*[#   4]+0.183*[#  16]+0.066*[#   3]+
          +0.066*[#  15]+0.063*[#   7]+0.062*[#  11]+
    |psi|^2 = 0.997
==== e(   8) =    -3.90288 eV ==== 
     psi = 0.189*[#  16]+0.188*[#   4]+0.186*[#  12]+0.185*[#   8]+0.064*[#  11]+
          +0.064*[#   7]+0.061*[#  15]+0.061*[#   3]+
    |psi|^2 = 0.997
==== e(   9) =     3.15641 eV ==== 
     psi = 0.003*[#   3]+0.003*[#   7]+0.003*[#  11]+0.003*[#  15]+0.001*[#   2]+
          +0.001*[#   6]+0.001*[#  10]+0.001*[#  14]+
    |psi|^2 = 0.026
==== e(  10) =     3.53223 eV ==== 
     psi = 0.004*[#   2]+0.004*[#   6]+0.004*[#  10]+0.004*[#  14]+
    |psi|^2 = 0.023
==== e(  11) =     4.25492 eV ==== 
     psi = 
    |psi|^2 = 0.005
==== e(  12) =     5.41380 eV ==== 
     psi = 0.002*[#   2]+0.002*[#   6]+0.002*[#  10]+0.002*[#  14]+
    |psi|^2 = 0.008

 k =  -0.1666666667  0.0962250449  0.0000000000
==== e(   1) =   -19.40368 eV ==== 
     psi = 0.201*[#   1]+0.201*[#   5]+0.201*[#   9]+0.201*[#  13]+0.032*[#   3]+
          +0.032*[#   7]+0.032*[#  11]+0.032*[#  15]+0.011*[#   4]+0.011*[#   8]+
          +0.011*[#  12]+0.011*[#  16]+
    |psi|^2 = 0.978
==== e(   2) =   -19.23882 eV ==== 
     psi = 0.205*[#   1]+0.205*[#   5]+0.205*[#   9]+0.205*[#  13]+0.031*[#   3]+
          +0.031*[#   7]+0.031*[#  11]+0.031*[#  15]+0.010*[#   4]+0.010*[#   8]+
          +0.010*[#  12]+0.010*[#  16]+
    |psi|^2 = 0.985
==== e(   3) =    -7.82160 eV ==== 
     psi = 0.241*[#   2]+0.241*[#   6]+0.241*[#  10]+0.241*[#  14]+
    |psi|^2 = 0.966
==== e(   4) =    -6.79281 eV ==== 
     psi = 0.244*[#   2]+0.244*[#   6]+0.244*[#  14]+0.244*[#  10]+
    |psi|^2 = 0.978
==== e(   5) =    -5.86006 eV ==== 
     psi = 0.167*[#   3]+0.167*[#  15]+0.166*[#   7]+0.166*[#  11]+0.055*[#   4]+
          +0.055*[#  16]+0.054*[#   8]+0.054*[#  12]+0.028*[#   5]+0.028*[#   9]+
          +0.028*[#   1]+0.028*[#  13]+
    |psi|^2 = 0.996
==== e(   6) =    -5.82087 eV ==== 
     psi = 0.165*[#   7]+0.165*[#  11]+0.164*[#   3]+0.164*[#  15]+0.056*[#   8]+
          +0.056*[#  12]+0.056*[#   4]+0.056*[#  16]+0.028*[#   1]+0.028*[#  13]+
          +0.028*[#   5]+0.028*[#   9]+
    |psi|^2 = 0.994
==== e(   7) =    -4.69496 eV ==== 
     psi = 0.188*[#   4]+0.187*[#  16]+0.186*[#   8]+0.186*[#  12]+0.063*[#   7]+
          +0.063*[#  11]+0.062*[#   3]+0.062*[#  15]+
    |psi|^2 = 0.997
==== e(   8) =    -4.69009 eV ==== 
     psi = 0.188*[#  12]+0.187*[#   8]+0.186*[#  16]+0.186*[#   4]+0.063*[#  15]+
          +0.063*[#   3]+0.062*[#  11]+0.062*[#   7]+
    |psi|^2 = 0.997
==== e(   9) =     3.81918 eV ==== 
     psi = 0.006*[#   3]+0.006*[#   7]+0.006*[#  11]+0.006*[#  15]+0.002*[#   4]+
          +0.002*[#   8]+0.002*[#  12]+0.002*[#  16]+0.001*[#   2]+0.001*[#   6]+
          +0.001*[#  10]+0.001*[#  14]+
    |psi|^2 = 0.039
==== e(  10) =     4.20033 eV ==== 
     psi = 0.003*[#   2]+0.003*[#   6]+0.003*[#  10]+0.003*[#  14]+0.002*[#   3]+
          +0.002*[#   7]+0.002*[#  11]+0.002*[#  15]+
    |psi|^2 = 0.024
==== e(  11) =     4.93242 eV ==== 
     psi = 0.001*[#   3]+0.001*[#   7]+0.001*[#  11]+0.001*[#  15]+
    |psi|^2 = 0.007
==== e(  12) =     6.08395 eV ==== 
     psi = 0.001*[#   2]+0.001*[#   6]+0.001*[#  10]+0.001*[#  14]+
    |psi|^2 = 0.007

 k =   0.1666666667  0.0962250449  0.0000000000
==== e(   1) =   -19.40368 eV ==== 
     psi = 0.201*[#   1]+0.201*[#   5]+0.201*[#   9]+0.201*[#  13]+0.032*[#   3]+
          +0.032*[#   7]+0.032*[#  11]+0.032*[#  15]+0.011*[#   4]+0.011*[#   8]+
          +0.011*[#  12]+0.011*[#  16]+
    |psi|^2 = 0.978
==== e(   2) =   -19.23882 eV ==== 
     psi = 0.205*[#   1]+0.205*[#   5]+0.205*[#   9]+0.205*[#  13]+0.031*[#   3]+
          +0.031*[#   7]+0.031*[#  11]+0.031*[#  15]+0.010*[#   4]+0.010*[#   8]+
          +0.010*[#  12]+0.010*[#  16]+
    |psi|^2 = 0.985
==== e(   3) =    -7.82160 eV ==== 
     psi = 0.241*[#   2]+0.241*[#   6]+0.241*[#  10]+0.241*[#  14]+
    |psi|^2 = 0.966
==== e(   4) =    -6.79281 eV ==== 
     psi = 0.244*[#   6]+0.244*[#   2]+0.244*[#  10]+0.244*[#  14]+
    |psi|^2 = 0.978
==== e(   5) =    -5.86006 eV ==== 
     psi = 0.167*[#   7]+0.167*[#  11]+0.166*[#   3]+0.166*[#  15]+0.055*[#   8]+
          +0.055*[#  12]+0.054*[#   4]+0.054*[#  16]+0.028*[#   1]+0.028*[#  13]+
          +0.028*[#   5]+0.028*[#   9]+
    |psi|^2 = 0.996
==== e(   6) =    -5.82087 eV ==== 
     psi = 0.165*[#   3]+0.165*[#  15]+0.164*[#   7]+0.164*[#  11]+0.056*[#   4]+
          +0.056*[#  16]+0.056*[#   8]+0.056*[#  12]+0.028*[#   5]+0.028*[#   9]+
          +0.028*[#   1]+0.028*[#  13]+
    |psi|^2 = 0.994
==== e(   7) =    -4.69496 eV ==== 
     psi = 0.188*[#   8]+0.187*[#  12]+0.186*[#   4]+0.186*[#  16]+0.063*[#   3]+
          +0.063*[#  15]+0.062*[#   7]+0.062*[#  11]+
    |psi|^2 = 0.997
==== e(   8) =    -4.69009 eV ==== 
     psi = 0.188*[#  16]+0.187*[#   4]+0.186*[#  12]+0.186*[#   8]+0.063*[#  11]+
          +0.063*[#   7]+0.062*[#  15]+0.062*[#   3]+
    |psi|^2 = 0.997
==== e(   9) =     3.81918 eV ==== 
     psi = 0.006*[#   3]+0.006*[#   7]+0.006*[#  11]+0.006*[#  15]+0.002*[#   4]+
          +0.002*[#   8]+0.002*[#  12]+0.002*[#  16]+0.001*[#   2]+0.001*[#   6]+
          +0.001*[#  10]+0.001*[#  14]+
    |psi|^2 = 0.039
==== e(  10) =     4.20033 eV ==== 
     psi = 0.003*[#   2]+0.003*[#   6]+0.003*[#  10]+0.003*[#  14]+0.002*[#   3]+
          +0.002*[#   7]+0.002*[#  11]+0.002*[#  15]+
    |psi|^2 = 0.024
==== e(  11) =     4.93242 eV ==== 
     psi = 0.001*[#   3]+0.001*[#   7]+0.001*[#  11]+0.001*[#  15]+
    |psi|^2 = 0.007
==== e(  12) =     6.08395 eV ==== 
     psi = 0.001*[#   2]+0.001*[#   6]+0.001*[#  10]+0.001*[#  14]+
    |psi|^2 = 0.007

 k =  -0.2500000000  0.1443375673  0.0000000000
==== e(   1) =   -18.59111 eV ==== 
     psi = 0.173*[#   1]+0.173*[#   5]+0.173*[#   9]+0.173*[#  13]+0.053*[#   3]+
          +0.053*[#   7]+0.053*[#  11]+0.053*[#  15]+0.018*[#   4]+0.018*[#   8]+
          +0.018*[#  12]+0.018*[#  16]+
    |psi|^2 = 0.977
==== e(   2) =   -18.43461 eV ==== 
     psi = 0.177*[#   1]+0.177*[#   5]+0.177*[#   9]+0.177*[#  13]+0.051*[#   3]+
          +0.051*[#   7]+0.051*[#  11]+0.051*[#  15]+0.017*[#   4]+0.017*[#   8]+
          +0.017*[#  12]+0.017*[#  16]+
    |psi|^2 = 0.984
==== e(   3) =    -7.95736 eV ==== 
     psi = 0.151*[#   3]+0.151*[#  15]+0.150*[#   7]+0.150*[#  11]+0.050*[#   4]+
          +0.050*[#  16]+0.049*[#   8]+0.049*[#  12]+0.048*[#   5]+0.048*[#   9]+
          +0.048*[#   1]+0.048*[#  13]+
    |psi|^2 = 0.993
==== e(   4) =    -7.89827 eV ==== 
     psi = 0.150*[#   7]+0.150*[#  11]+0.148*[#   3]+0.148*[#  15]+0.051*[#   8]+
          +0.051*[#  12]+0.050*[#   4]+0.050*[#  16]+0.049*[#   1]+0.049*[#  13]+
          +0.048*[#   5]+0.048*[#   9]+
    |psi|^2 = 0.992
==== e(   5) =    -6.85584 eV ==== 
     psi = 0.245*[#   6]+0.245*[#  10]+0.245*[#   2]+0.245*[#  14]+
    |psi|^2 = 0.980
==== e(   6) =    -5.86915 eV ==== 
     psi = 0.247*[#   2]+0.247*[#  14]+0.246*[#   6]+0.246*[#  10]+
    |psi|^2 = 0.988
==== e(   7) =    -5.57072 eV ==== 
     psi = 0.187*[#   4]+0.187*[#  16]+0.187*[#   8]+0.186*[#  12]+0.063*[#   7]+
          +0.063*[#  11]+0.062*[#   3]+0.062*[#  15]+
    |psi|^2 = 0.997
==== e(   8) =    -5.56481 eV ==== 
     psi = 0.187*[#  12]+0.187*[#   8]+0.187*[#  16]+0.186*[#   4]+0.063*[#   3]+
          +0.063*[#  15]+0.062*[#   7]+0.062*[#  11]+
    |psi|^2 = 0.997
==== e(   9) =     4.91985 eV ==== 
     psi = 0.006*[#   3]+0.006*[#   7]+0.006*[#  11]+0.006*[#  15]+0.002*[#   4]+
          +0.002*[#   8]+0.002*[#  12]+0.002*[#  16]+
    |psi|^2 = 0.034
==== e(  10) =     5.29621 eV ==== 
     psi = 0.005*[#   6]+0.005*[#  10]+0.004*[#   2]+0.004*[#  14]+0.002*[#   3]+
          +0.002*[#   7]+0.002*[#  11]+0.002*[#  15]+
    |psi|^2 = 0.028
==== e(  11) =     6.05928 eV ==== 
     psi = 
    |psi|^2 = 0.005
==== e(  12) =     6.52214 eV ==== 
     psi = 0.229*[#   2]+0.229*[#  14]+0.225*[#   6]+0.225*[#  10]+
    |psi|^2 = 0.910

 k =   0.2500000000  0.1443375673  0.0000000000
==== e(   1) =   -18.59111 eV ==== 
     psi = 0.173*[#   1]+0.173*[#   5]+0.173*[#   9]+0.173*[#  13]+0.053*[#   3]+
          +0.053*[#   7]+0.053*[#  11]+0.053*[#  15]+0.018*[#   4]+0.018*[#   8]+
          +0.018*[#  12]+0.018*[#  16]+
    |psi|^2 = 0.977
==== e(   2) =   -18.43461 eV ==== 
     psi = 0.177*[#   1]+0.177*[#   5]+0.177*[#   9]+0.177*[#  13]+0.051*[#   3]+
          +0.051*[#   7]+0.051*[#  11]+0.051*[#  15]+0.017*[#   4]+0.017*[#   8]+
          +0.017*[#  12]+0.017*[#  16]+
    |psi|^2 = 0.984
==== e(   3) =    -7.95736 eV ==== 
     psi = 0.151*[#   7]+0.151*[#  11]+0.150*[#   3]+0.150*[#  15]+0.050*[#   8]+
          +0.050*[#  12]+0.049*[#   4]+0.049*[#  16]+0.048*[#   1]+0.048*[#  13]+
          +0.048*[#   5]+0.048*[#   9]+
    |psi|^2 = 0.993
==== e(   4) =    -7.89827 eV ==== 
     psi = 0.150*[#   3]+0.150*[#  15]+0.148*[#   7]+0.148*[#  11]+0.051*[#   4]+
          +0.051*[#  16]+0.050*[#   8]+0.050*[#  12]+0.049*[#   5]+0.049*[#   9]+
          +0.048*[#   1]+0.048*[#  13]+
    |psi|^2 = 0.992
==== e(   5) =    -6.85584 eV ==== 
     psi = 0.245*[#   2]+0.245*[#  14]+0.245*[#   6]+0.245*[#  10]+
    |psi|^2 = 0.980
==== e(   6) =    -5.86915 eV ==== 
     psi = 0.247*[#   6]+0.247*[#  10]+0.246*[#   2]+0.246*[#  14]+
    |psi|^2 = 0.988
==== e(   7) =    -5.57072 eV ==== 
     psi = 0.187*[#   8]+0.187*[#  12]+0.187*[#   4]+0.186*[#  16]+0.063*[#   3]+
          +0.063*[#  15]+0.062*[#   7]+0.062*[#  11]+
    |psi|^2 = 0.997
==== e(   8) =    -5.56481 eV ==== 
     psi = 0.187*[#  16]+0.187*[#   4]+0.187*[#  12]+0.186*[#   8]+0.063*[#   7]+
          +0.063*[#  11]+0.062*[#   3]+0.062*[#  15]+
    |psi|^2 = 0.997
==== e(   9) =     4.91985 eV ==== 
     psi = 0.006*[#   3]+0.006*[#   7]+0.006*[#  11]+0.006*[#  15]+0.002*[#   4]+
          +0.002*[#   8]+0.002*[#  12]+0.002*[#  16]+
    |psi|^2 = 0.034
==== e(  10) =     5.29621 eV ==== 
     psi = 0.005*[#   2]+0.005*[#  14]+0.004*[#   6]+0.004*[#  10]+0.002*[#   3]+
          +0.002*[#   7]+0.002*[#  11]+0.002*[#  15]+
    |psi|^2 = 0.028
==== e(  11) =     6.05928 eV ==== 
     psi = 
    |psi|^2 = 0.005
==== e(  12) =     6.52214 eV ==== 
     psi = 0.229*[#   6]+0.229*[#  10]+0.225*[#   2]+0.225*[#  14]+
    |psi|^2 = 0.910

 k =  -0.3333333333  0.1924500897  0.0000000000
==== e(   1) =   -17.46958 eV ==== 
     psi = 0.152*[#   5]+0.152*[#   9]+0.151*[#   1]+0.151*[#  13]+0.070*[#   3]+
          +0.070*[#  15]+0.070*[#   7]+0.070*[#  11]+0.023*[#   4]+0.023*[#   8]+
          +0.023*[#  12]+0.023*[#  16]+
    |psi|^2 = 0.978
==== e(   2) =   -17.32472 eV ==== 
     psi = 0.155*[#   1]+0.155*[#  13]+0.155*[#   5]+0.155*[#   9]+0.068*[#   7]+
          +0.068*[#  11]+0.068*[#   3]+0.068*[#  15]+0.023*[#   4]+0.023*[#   8]+
          +0.023*[#  12]+0.023*[#  16]+
    |psi|^2 = 0.985
==== e(   3) =   -10.16052 eV ==== 
     psi = 0.138*[#   3]+0.137*[#  15]+0.136*[#   7]+0.136*[#  11]+0.066*[#   5]+
          +0.066*[#   9]+0.065*[#   1]+0.065*[#  13]+0.046*[#   4]+0.046*[#  16]+
          +0.045*[#   8]+0.045*[#  12]+
    |psi|^2 = 0.991
==== e(   4) =   -10.08200 eV ==== 
     psi = 0.136*[#   7]+0.136*[#  11]+0.135*[#   3]+0.135*[#  15]+0.067*[#   1]+
          +0.067*[#  13]+0.066*[#   5]+0.066*[#   9]+0.046*[#   8]+0.046*[#  12]+
          +0.045*[#   4]+0.045*[#  16]+
    |psi|^2 = 0.990
==== e(   5) =    -6.30093 eV ==== 
     psi = 0.187*[#   4]+0.187*[#  16]+0.187*[#   8]+0.186*[#  12]+0.063*[#   7]+
          +0.063*[#  11]+0.062*[#   3]+0.062*[#  15]+
    |psi|^2 = 0.997
==== e(   6) =    -6.29449 eV ==== 
     psi = 0.187*[#  12]+0.187*[#   8]+0.187*[#  16]+0.186*[#   4]+0.063*[#   3]+
          +0.063*[#  15]+0.062*[#   7]+0.062*[#  11]+
    |psi|^2 = 0.997
==== e(   7) =    -5.55704 eV ==== 
     psi = 0.248*[#   6]+0.248*[#  10]+0.247*[#   2]+0.247*[#  14]+
    |psi|^2 = 0.991
==== e(   8) =    -4.65033 eV ==== 
     psi = 0.249*[#   2]+0.249*[#  14]+0.248*[#   6]+0.248*[#  10]+
    |psi|^2 = 0.994
==== e(   9) =     4.13402 eV ==== 
     psi = 0.234*[#   6]+0.235*[#  10]+0.232*[#   2]+0.232*[#  14]+
    |psi|^2 = 0.933
==== e(  10) =     4.65727 eV ==== 
     psi = 0.237*[#   2]+0.237*[#  14]+0.235*[#   6]+0.235*[#  10]+
    |psi|^2 = 0.944
==== e(  11) =     6.43887 eV ==== 
     psi = 0.004*[#   1]+0.004*[#   5]+0.004*[#   9]+0.004*[#  13]+
    |psi|^2 = 0.021
==== e(  12) =     6.86988 eV ==== 
     psi = 0.007*[#   1]+0.007*[#   5]+0.007*[#   9]+0.007*[#  13]+0.003*[#   6]+
          +0.003*[#  10]+0.003*[#   2]+0.003*[#  14]+
    |psi|^2 = 0.041

 k =   0.3333333333  0.1924500897  0.0000000000
==== e(   1) =   -17.46958 eV ==== 
     psi = 0.152*[#   1]+0.152*[#  13]+0.151*[#   5]+0.151*[#   9]+0.070*[#   7]+
          +0.070*[#  11]+0.070*[#   3]+0.070*[#  15]+0.023*[#   4]+0.023*[#   8]+
          +0.023*[#  12]+0.023*[#  16]+
    |psi|^2 = 0.978
==== e(   2) =   -17.32472 eV ==== 
     psi = 0.155*[#   5]+0.155*[#   9]+0.155*[#   1]+0.155*[#  13]+0.068*[#   3]+
          +0.068*[#  15]+0.068*[#   7]+0.068*[#  11]+0.023*[#   4]+0.023*[#   8]+
          +0.023*[#  12]+0.023*[#  16]+
    |psi|^2 = 0.985
==== e(   3) =   -10.16052 eV ==== 
     psi = 0.138*[#   7]+0.137*[#  11]+0.136*[#   3]+0.136*[#  15]+0.066*[#   1]+
          +0.066*[#  13]+0.065*[#   5]+0.065*[#   9]+0.046*[#   8]+0.046*[#  12]+
          +0.045*[#   4]+0.045*[#  16]+
    |psi|^2 = 0.991
==== e(   4) =   -10.08200 eV ==== 
     psi = 0.136*[#   3]+0.136*[#  15]+0.135*[#   7]+0.135*[#  11]+0.067*[#   5]+
          +0.067*[#   9]+0.066*[#   1]+0.066*[#  13]+0.046*[#   4]+0.046*[#  16]+
          +0.045*[#   8]+0.045*[#  12]+
    |psi|^2 = 0.990
==== e(   5) =    -6.30093 eV ==== 
     psi = 0.187*[#   8]+0.187*[#  12]+0.187*[#   4]+0.186*[#  16]+0.063*[#   3]+
          +0.063*[#  15]+0.062*[#   7]+0.062*[#  11]+
    |psi|^2 = 0.997
==== e(   6) =    -6.29449 eV ==== 
     psi = 0.187*[#  16]+0.187*[#   4]+0.187*[#  12]+0.186*[#   8]+0.063*[#   7]+
          +0.063*[#  11]+0.062*[#   3]+0.062*[#  15]+
    |psi|^2 = 0.997
==== e(   7) =    -5.55704 eV ==== 
     psi = 0.248*[#   2]+0.248*[#  14]+0.247*[#   6]+0.247*[#  10]+
    |psi|^2 = 0.991
==== e(   8) =    -4.65033 eV ==== 
     psi = 0.249*[#   6]+0.249*[#  10]+0.248*[#   2]+0.248*[#  14]+
    |psi|^2 = 0.994
==== e(   9) =     4.13402 eV ==== 
     psi = 0.234*[#   2]+0.235*[#  14]+0.232*[#   6]+0.232*[#  10]+
    |psi|^2 = 0.933
==== e(  10) =     4.65727 eV ==== 
     psi = 0.237*[#   6]+0.237*[#  10]+0.235*[#   2]+0.235*[#  14]+
    |psi|^2 = 0.944
==== e(  11) =     6.43887 eV ==== 
     psi = 0.004*[#   1]+0.004*[#   5]+0.004*[#   9]+0.004*[#  13]+
    |psi|^2 = 0.021
==== e(  12) =     6.86988 eV ==== 
     psi = 0.007*[#   1]+0.007*[#   5]+0.007*[#   9]+0.007*[#  13]+0.003*[#   2]+
          +0.003*[#  14]+0.003*[#   6]+0.003*[#  10]+
    |psi|^2 = 0.041

 k =  -0.4166666667  0.2405626122  0.0000000000
==== e(   1) =   -16.06959 eV ==== 
     psi = 0.138*[#   5]+0.138*[#   9]+0.138*[#   1]+0.138*[#  13]+0.081*[#   3]+
          +0.081*[#  15]+0.080*[#   7]+0.080*[#  11]+0.027*[#   4]+0.027*[#  16]+
          +0.027*[#   8]+0.027*[#  12]+
    |psi|^2 = 0.982
==== e(   2) =   -15.94139 eV ==== 
     psi = 0.142*[#   1]+0.142*[#  13]+0.142*[#   5]+0.142*[#   9]+0.079*[#   7]+
          +0.079*[#  11]+0.078*[#   3]+0.078*[#  15]+0.026*[#   8]+0.026*[#  12]+
          +0.026*[#   4]+0.026*[#  16]+
    |psi|^2 = 0.987
==== e(   3) =   -12.26043 eV ==== 
     psi = 0.128*[#   3]+0.128*[#  15]+0.127*[#   7]+0.127*[#  11]+0.077*[#   5]+
          +0.077*[#   9]+0.076*[#   1]+0.076*[#  13]+0.043*[#   4]+0.043*[#  16]+
          +0.042*[#   8]+0.042*[#  12]+
    |psi|^2 = 0.986
==== e(   4) =   -12.16596 eV ==== 
     psi = 0.127*[#   7]+0.127*[#  11]+0.126*[#   3]+0.126*[#  15]+0.079*[#   1]+
          +0.079*[#  13]+0.078*[#   5]+0.078*[#   9]+0.042*[#   8]+0.042*[#  12]+
          +0.042*[#   4]+0.042*[#  16]+
    |psi|^2 = 0.987
==== e(   5) =    -6.77178 eV ==== 
     psi = 0.187*[#   4]+0.187*[#  16]+0.187*[#   8]+0.186*[#  12]+0.063*[#   7]+
          +0.062*[#  11]+0.062*[#   3]+0.062*[#  15]+
    |psi|^2 = 0.996
==== e(   6) =    -6.76510 eV ==== 
     psi = 0.187*[#  12]+0.187*[#   8]+0.187*[#  16]+0.186*[#   4]+0.062*[#   3]+
          +0.063*[#  15]+0.062*[#   7]+0.062*[#  11]+
    |psi|^2 = 0.996
==== e(   7) =    -4.05407 eV ==== 
     psi = 0.252*[#   6]+0.252*[#  10]+0.246*[#   2]+0.246*[#  14]+
    |psi|^2 = 0.996
==== e(   8) =    -3.34635 eV ==== 
     psi = 0.254*[#   2]+0.254*[#  14]+0.245*[#   6]+0.245*[#  10]+
    |psi|^2 = 0.997
==== e(   9) =     2.01917 eV ==== 
     psi = 0.243*[#   6]+0.243*[#  10]+0.229*[#   2]+0.229*[#  14]+
    |psi|^2 = 0.943
==== e(  10) =     2.54542 eV ==== 
     psi = 0.243*[#   2]+0.243*[#  14]+0.231*[#   6]+0.231*[#  10]+
    |psi|^2 = 0.948
==== e(  11) =     6.92635 eV ==== 
     psi = 0.161*[#   1]+0.161*[#  13]+0.158*[#   5]+0.158*[#   9]+0.044*[#   3]+
          +0.044*[#  15]+0.043*[#   7]+0.043*[#  11]+0.015*[#   4]+0.015*[#  16]+
          +0.014*[#   8]+0.014*[#  12]+
    |psi|^2 = 0.870
==== e(  12) =     6.97355 eV ==== 
     psi = 0.161*[#   5]+0.161*[#   9]+0.158*[#   1]+0.158*[#  13]+0.045*[#   7]+
          +0.045*[#  11]+0.044*[#   3]+0.044*[#  15]+0.015*[#   8]+0.015*[#  12]+
          +0.015*[#   4]+0.015*[#  16]+
    |psi|^2 = 0.876

 k =   0.4166666667  0.2405626122  0.0000000000
==== e(   1) =   -16.06959 eV ==== 
     psi = 0.138*[#   1]+0.138*[#  13]+0.138*[#   5]+0.138*[#   9]+0.081*[#   7]+
          +0.081*[#  11]+0.080*[#   3]+0.080*[#  15]+0.027*[#   8]+0.027*[#  12]+
          +0.027*[#   4]+0.027*[#  16]+
    |psi|^2 = 0.982
==== e(   2) =   -15.94139 eV ==== 
     psi = 0.142*[#   5]+0.142*[#   9]+0.142*[#   1]+0.142*[#  13]+0.079*[#   3]+
          +0.079*[#  15]+0.078*[#   7]+0.078*[#  11]+0.026*[#   4]+0.026*[#  16]+
          +0.026*[#   8]+0.026*[#  12]+
    |psi|^2 = 0.987
==== e(   3) =   -12.26043 eV ==== 
     psi = 0.128*[#   7]+0.128*[#  11]+0.127*[#   3]+0.127*[#  15]+0.077*[#   1]+
          +0.077*[#  13]+0.076*[#   5]+0.076*[#   9]+0.043*[#   8]+0.043*[#  12]+
          +0.042*[#   4]+0.042*[#  16]+
    |psi|^2 = 0.986
==== e(   4) =   -12.16596 eV ==== 
     psi = 0.127*[#   3]+0.127*[#  15]+0.126*[#   7]+0.126*[#  11]+0.079*[#   5]+
          +0.079*[#   9]+0.078*[#   1]+0.078*[#  13]+0.042*[#   4]+0.042*[#  16]+
          +0.042*[#   8]+0.042*[#  12]+
    |psi|^2 = 0.987
==== e(   5) =    -6.77178 eV ==== 
     psi = 0.187*[#   8]+0.187*[#  12]+0.187*[#   4]+0.186*[#  16]+0.063*[#   3]+
          +0.062*[#  15]+0.062*[#   7]+0.062*[#  11]+
    |psi|^2 = 0.996
==== e(   6) =    -6.76510 eV ==== 
     psi = 0.187*[#  16]+0.187*[#   4]+0.187*[#  12]+0.186*[#   8]+0.062*[#   7]+
          +0.063*[#  11]+0.062*[#   3]+0.062*[#  15]+
    |psi|^2 = 0.996
==== e(   7) =    -4.05407 eV ==== 
     psi = 0.252*[#   2]+0.252*[#  14]+0.246*[#   6]+0.246*[#  10]+
    |psi|^2 = 0.996
==== e(   8) =    -3.34635 eV ==== 
     psi = 0.254*[#   6]+0.254*[#  10]+0.245*[#   2]+0.245*[#  14]+
    |psi|^2 = 0.997
==== e(   9) =     2.01917 eV ==== 
     psi = 0.243*[#   2]+0.243*[#  14]+0.229*[#   6]+0.229*[#  10]+
    |psi|^2 = 0.943
==== e(  10) =     2.54542 eV ==== 
     psi = 0.243*[#   6]+0.243*[#  10]+0.231*[#   2]+0.231*[#  14]+
    |psi|^2 = 0.948
==== e(  11) =     6.92635 eV ==== 
     psi = 0.161*[#   5]+0.161*[#   9]+0.158*[#   1]+0.158*[#  13]+0.044*[#   7]+
          +0.044*[#  11]+0.043*[#   3]+0.043*[#  15]+0.015*[#   8]+0.015*[#  12]+
          +0.014*[#   4]+0.014*[#  16]+
    |psi|^2 = 0.870
==== e(  12) =     6.97355 eV ==== 
     psi = 0.161*[#   1]+0.161*[#  13]+0.158*[#   5]+0.158*[#   9]+0.045*[#   3]+
          +0.045*[#  15]+0.044*[#   7]+0.044*[#  11]+0.015*[#   4]+0.015*[#  16]+
          +0.015*[#   8]+0.015*[#  12]+
    |psi|^2 = 0.876

 k =   0.5000000000 -0.2886751346  0.0000000000
==== e(   1) =   -14.76356 eV ==== 
     psi = 0.170*[#   5]+0.170*[#   9]+0.150*[#   1]+0.150*[#  13]+0.077*[#   3]+
          +0.077*[#  15]+0.055*[#   7]+0.055*[#  11]+0.026*[#   4]+0.026*[#  16]+
          +0.018*[#   8]+0.018*[#  12]+
    |psi|^2 = 0.992
==== e(   2) =   -14.73647 eV ==== 
     psi = 0.171*[#   1]+0.171*[#  13]+0.150*[#   5]+0.150*[#   9]+0.077*[#   7]+
          +0.077*[#  11]+0.054*[#   3]+0.054*[#  15]+0.026*[#   8]+0.026*[#  12]+
          +0.018*[#   4]+0.018*[#  16]+
    |psi|^2 = 0.993
==== e(   3) =   -13.72090 eV ==== 
     psi = 0.152*[#   3]+0.152*[#  15]+0.130*[#   7]+0.130*[#  11]+0.068*[#   5]+
          +0.068*[#   9]+0.051*[#   4]+0.051*[#  16]+0.045*[#   1]+0.045*[#  13]+
          +0.043*[#   8]+0.043*[#  12]+
    |psi|^2 = 0.978
==== e(   4) =   -13.69892 eV ==== 
     psi = 0.152*[#   7]+0.152*[#  11]+0.130*[#   3]+0.130*[#  15]+0.068*[#   1]+
          +0.068*[#  13]+0.051*[#   8]+0.051*[#  12]+0.046*[#   5]+0.046*[#   9]+
          +0.043*[#   4]+0.043*[#  16]+
    |psi|^2 = 0.979
==== e(   5) =    -6.93351 eV ==== 
     psi = 0.187*[#   4]+0.187*[#  16]+0.187*[#   8]+0.186*[#  12]+0.063*[#   7]+
          +0.062*[#  11]+0.062*[#   3]+0.062*[#  15]+
    |psi|^2 = 0.996
==== e(   6) =    -6.92672 eV ==== 
     psi = 0.187*[#  12]+0.187*[#   8]+0.187*[#  16]+0.186*[#   4]+0.062*[#   3]+
          +0.063*[#  15]+0.062*[#   7]+0.062*[#  11]+
    |psi|^2 = 0.996
==== e(   7) =    -2.97217 eV ==== 
     psi = 0.291*[#   6]+0.291*[#  10]+0.208*[#   2]+0.208*[#  14]+
    |psi|^2 = 0.998
==== e(   8) =    -2.80952 eV ==== 
     psi = 0.295*[#   2]+0.295*[#  14]+0.204*[#   6]+0.204*[#  10]+
    |psi|^2 = 0.998
==== e(   9) =     1.12223 eV ==== 
     psi = 0.282*[#   6]+0.282*[#  10]+0.192*[#   2]+0.192*[#  14]+
    |psi|^2 = 0.947
==== e(  10) =     1.32001 eV ==== 
     psi = 0.278*[#   2]+0.278*[#  14]+0.196*[#   6]+0.196*[#  10]+
    |psi|^2 = 0.949
==== e(  11) =     6.84780 eV ==== 
     psi = 0.169*[#   1]+0.169*[#  13]+0.166*[#   5]+0.166*[#   9]+0.040*[#   3]+
          +0.040*[#  15]+0.040*[#   7]+0.040*[#  11]+0.013*[#   4]+0.013*[#  16]+
          +0.013*[#   8]+0.013*[#  12]+
    |psi|^2 = 0.883
==== e(  12) =     6.89460 eV ==== 
     psi = 0.169*[#   5]+0.169*[#   9]+0.166*[#   1]+0.166*[#  13]+0.041*[#   7]+
          +0.041*[#  11]+0.040*[#   3]+0.040*[#  15]+0.013*[#   8]+0.014*[#  12]+
          +0.013*[#   4]+0.013*[#  16]+
    |psi|^2 = 0.885

 k =  -0.5000000000 -0.2886751346  0.0000000000
==== e(   1) =   -14.76356 eV ==== 
     psi = 0.170*[#   1]+0.170*[#  13]+0.150*[#   5]+0.150*[#   9]+0.077*[#   7]+
          +0.077*[#  11]+0.055*[#   3]+0.055*[#  15]+0.026*[#   8]+0.026*[#  12]+
          +0.018*[#   4]+0.018*[#  16]+
    |psi|^2 = 0.992
==== e(   2) =   -14.73647 eV ==== 
     psi = 0.171*[#   5]+0.171*[#   9]+0.150*[#   1]+0.150*[#  13]+0.077*[#   3]+
          +0.077*[#  15]+0.054*[#   7]+0.054*[#  11]+0.026*[#   4]+0.026*[#  16]+
          +0.018*[#   8]+0.018*[#  12]+
    |psi|^2 = 0.993
==== e(   3) =   -13.72090 eV ==== 
     psi = 0.152*[#   7]+0.152*[#  11]+0.130*[#   3]+0.130*[#  15]+0.068*[#   1]+
          +0.068*[#  13]+0.051*[#   8]+0.051*[#  12]+0.045*[#   5]+0.045*[#   9]+
          +0.043*[#   4]+0.043*[#  16]+
    |psi|^2 = 0.978
==== e(   4) =   -13.69892 eV ==== 
     psi = 0.152*[#   3]+0.152*[#  15]+0.130*[#   7]+0.130*[#  11]+0.068*[#   5]+
          +0.068*[#   9]+0.051*[#   4]+0.051*[#  16]+0.046*[#   1]+0.046*[#  13]+
          +0.043*[#   8]+0.043*[#  12]+
    |psi|^2 = 0.979
==== e(   5) =    -6.93351 eV ==== 
     psi = 0.187*[#   8]+0.187*[#  12]+0.187*[#   4]+0.186*[#  16]+0.063*[#   3]+
          +0.062*[#  15]+0.062*[#   7]+0.062*[#  11]+
    |psi|^2 = 0.996
==== e(   6) =    -6.92672 eV ==== 
     psi = 0.187*[#  16]+0.187*[#   4]+0.187*[#  12]+0.186*[#   8]+0.062*[#   7]+
          +0.063*[#  11]+0.062*[#   3]+0.062*[#  15]+
    |psi|^2 = 0.996
==== e(   7) =    -2.97217 eV ==== 
     psi = 0.291*[#   2]+0.291*[#  14]+0.208*[#   6]+0.208*[#  10]+
    |psi|^2 = 0.998
==== e(   8) =    -2.80952 eV ==== 
     psi = 0.295*[#   6]+0.295*[#  10]+0.204*[#   2]+0.204*[#  14]+
    |psi|^2 = 0.998
==== e(   9) =     1.12223 eV ==== 
     psi = 0.282*[#   2]+0.282*[#  14]+0.192*[#   6]+0.192*[#  10]+
    |psi|^2 = 0.947
==== e(  10) =     1.32001 eV ==== 
     psi = 0.278*[#   6]+0.278*[#  10]+0.196*[#   2]+0.196*[#  14]+
    |psi|^2 = 0.949
==== e(  11) =     6.84780 eV ==== 
     psi = 0.169*[#   5]+0.169*[#   9]+0.166*[#   1]+0.166*[#  13]+0.040*[#   7]+
          +0.040*[#  11]+0.040*[#   3]+0.040*[#  15]+0.013*[#   8]+0.013*[#  12]+
          +0.013*[#   4]+0.013*[#  16]+
    |psi|^2 = 0.883
==== e(  12) =     6.89460 eV ==== 
     psi = 0.169*[#   1]+0.169*[#  13]+0.166*[#   5]+0.166*[#   9]+0.041*[#   3]+
          +0.041*[#  15]+0.040*[#   7]+0.040*[#  11]+0.013*[#   4]+0.014*[#  16]+
          +0.013*[#   8]+0.013*[#  12]+
    |psi|^2 = 0.885

 k =  -0.0833333333  0.1443375673  0.0000000000
==== e(   1) =   -19.56724 eV ==== 
     psi = 0.209*[#   1]+0.209*[#   5]+0.209*[#   9]+0.209*[#  13]+0.026*[#   4]+
          +0.026*[#   8]+0.026*[#  12]+0.026*[#  16]+0.009*[#   3]+0.009*[#   7]+
          +0.009*[#  11]+0.009*[#  15]+
    |psi|^2 = 0.978
==== e(   2) =   -19.40062 eV ==== 
     psi = 0.213*[#   1]+0.213*[#   5]+0.213*[#   9]+0.213*[#  13]+0.025*[#   4]+
          +0.025*[#   8]+0.025*[#  12]+0.025*[#  16]+0.008*[#   3]+0.008*[#   7]+
          +0.008*[#  11]+0.008*[#  15]+
    |psi|^2 = 0.985
==== e(   3) =    -8.01818 eV ==== 
     psi = 0.240*[#   2]+0.240*[#   6]+0.240*[#  10]+0.240*[#  14]+
    |psi|^2 = 0.963
==== e(   4) =    -6.98049 eV ==== 
     psi = 0.243*[#   2]+0.243*[#   6]+0.243*[#  10]+0.243*[#  14]+
    |psi|^2 = 0.975
==== e(   5) =    -5.24517 eV ==== 
     psi = 0.165*[#   4]+0.165*[#  16]+0.162*[#   8]+0.162*[#  12]+0.067*[#   7]+
          +0.067*[#  11]+0.065*[#   3]+0.065*[#  15]+0.021*[#   1]+0.021*[#  13]+
          +0.020*[#   5]+0.020*[#   9]+
    |psi|^2 = 0.998
==== e(   6) =    -5.23762 eV ==== 
     psi = 0.165*[#  12]+0.164*[#   8]+0.162*[#  16]+0.161*[#   4]+0.067*[#   3]+
          +0.067*[#  15]+0.065*[#   7]+0.065*[#  11]+0.021*[#   5]+0.021*[#   9]+
          +0.020*[#   1]+0.020*[#  13]+
    |psi|^2 = 0.998
==== e(   7) =    -4.58101 eV ==== 
     psi = 0.172*[#   3]+0.171*[#   7]+0.171*[#  15]+0.171*[#  11]+0.075*[#   4]+
          +0.075*[#   8]+0.075*[#  12]+0.075*[#  16]+0.003*[#   1]+0.003*[#  13]+
          +0.003*[#   5]+0.003*[#   9]+
    |psi|^2 = 0.996
==== e(   8) =    -4.57215 eV ==== 
     psi = 0.179*[#  11]+0.179*[#   7]+0.179*[#  15]+0.179*[#   3]+0.066*[#   4]+
          +0.067*[#  16]+0.066*[#   8]+0.066*[#  12]+0.003*[#   5]+0.003*[#   9]+
          +0.003*[#   1]+0.003*[#  13]+
    |psi|^2 = 0.994
==== e(   9) =     3.59858 eV ==== 
     psi = 0.006*[#   4]+0.006*[#   8]+0.006*[#  12]+0.006*[#  16]+0.002*[#   3]+
          +0.002*[#   7]+0.002*[#  11]+0.002*[#  15]+0.001*[#   2]+0.001*[#   6]+
          +0.001*[#  10]+0.001*[#  14]+
    |psi|^2 = 0.038
==== e(  10) =     3.97829 eV ==== 
     psi = 0.003*[#   2]+0.003*[#   6]+0.003*[#  10]+0.003*[#  14]+0.002*[#   4]+
          +0.002*[#   8]+0.002*[#  12]+0.002*[#  16]+
    |psi|^2 = 0.024
==== e(  11) =     4.70678 eV ==== 
     psi = 0.001*[#   4]+0.001*[#   8]+0.001*[#  12]+0.001*[#  16]+
    |psi|^2 = 0.007
==== e(  12) =     5.86157 eV ==== 
     psi = 0.001*[#   2]+0.001*[#   6]+0.001*[#  10]+0.001*[#  14]+
    |psi|^2 = 0.008

 k =   0.1666666667 -0.0000000000  0.0000000000
==== e(   1) =   -19.56717 eV ==== 
     psi = 0.209*[#   1]+0.209*[#   5]+0.209*[#   9]+0.209*[#  13]+0.035*[#   3]+
          +0.035*[#   7]+0.035*[#  11]+0.035*[#  15]+
    |psi|^2 = 0.978
==== e(   2) =   -19.40067 eV ==== 
     psi = 0.213*[#   1]+0.213*[#   5]+0.213*[#   9]+0.213*[#  13]+0.033*[#   3]+
          +0.033*[#   7]+0.033*[#  11]+0.033*[#  15]+
    |psi|^2 = 0.985
==== e(   3) =    -8.01725 eV ==== 
     psi = 0.240*[#   2]+0.240*[#   6]+0.240*[#  10]+0.240*[#  14]+
    |psi|^2 = 0.963
==== e(   4) =    -6.98155 eV ==== 
     psi = 0.243*[#   2]+0.243*[#   6]+0.243*[#  10]+0.243*[#  14]+
    |psi|^2 = 0.975
==== e(   5) =    -5.25837 eV ==== 
     psi = 0.211*[#   3]+0.211*[#   7]+0.211*[#  11]+0.211*[#  15]+0.021*[#   1]+
          +0.021*[#   5]+0.021*[#   9]+0.021*[#  13]+0.017*[#   4]+0.017*[#   8]+
          +0.017*[#  12]+0.017*[#  16]+
    |psi|^2 = 0.998
==== e(   6) =    -5.22079 eV ==== 
     psi = 0.211*[#   3]+0.211*[#   7]+0.212*[#  11]+0.212*[#  15]+0.020*[#   1]+
          +0.020*[#   5]+0.020*[#   9]+0.020*[#  13]+0.017*[#   4]+0.017*[#   8]+
          +0.017*[#  12]+0.017*[#  16]+
    |psi|^2 = 0.998
==== e(   7) =    -4.58350 eV ==== 
     psi = 0.227*[#   4]+0.227*[#   8]+0.227*[#  12]+0.227*[#  16]+0.019*[#   3]+
          +0.019*[#   7]+0.019*[#  11]+0.019*[#  15]+0.003*[#   1]+0.003*[#   5]+
          +0.003*[#   9]+0.003*[#  13]+
    |psi|^2 = 0.996
==== e(   8) =    -4.57350 eV ==== 
     psi = 0.228*[#  12]+0.228*[#  16]+0.227*[#   4]+0.227*[#   8]+0.018*[#   3]+
          +0.018*[#   7]+0.018*[#  11]+0.018*[#  15]+0.003*[#   1]+0.003*[#   5]+
          +0.003*[#   9]+0.003*[#  13]+
    |psi|^2 = 0.995
==== e(   9) =     3.59862 eV ==== 
     psi = 0.008*[#   3]+0.008*[#   7]+0.008*[#  11]+0.008*[#  15]+0.001*[#   2]+
          +0.001*[#   6]+0.001*[#  10]+0.001*[#  14]+
    |psi|^2 = 0.038
==== e(  10) =     3.97803 eV ==== 
     psi = 0.003*[#   2]+0.003*[#   6]+0.003*[#  10]+0.003*[#  14]+0.003*[#   3]+
          +0.003*[#   7]+0.003*[#  11]+0.003*[#  15]+
    |psi|^2 = 0.024
==== e(  11) =     4.70676 eV ==== 
     psi = 0.002*[#   3]+0.002*[#   7]+0.002*[#  11]+0.002*[#  15]+
    |psi|^2 = 0.007
==== e(  12) =     5.86129 eV ==== 
     psi = 0.001*[#   2]+0.001*[#   6]+0.001*[#  10]+0.001*[#  14]+
    |psi|^2 = 0.008

 k =  -0.0833333333  0.2405626122  0.0000000000
==== e(   1) =   -18.91538 eV ==== 
     psi = 0.182*[#   1]+0.182*[#   5]+0.182*[#   9]+0.182*[#  13]+0.055*[#   4]+
          +0.055*[#   8]+0.055*[#  12]+0.055*[#  16]+0.007*[#   3]+0.007*[#   7]+
          +0.007*[#  11]+0.007*[#  15]+
    |psi|^2 = 0.977
==== e(   2) =   -18.75524 eV ==== 
     psi = 0.187*[#   1]+0.187*[#   5]+0.187*[#   9]+0.187*[#  13]+0.053*[#   4]+
          +0.053*[#   8]+0.053*[#  12]+0.053*[#  16]+0.006*[#   3]+0.006*[#   7]+
          +0.006*[#  11]+0.006*[#  15]+
    |psi|^2 = 0.985
==== e(   3) =    -7.24169 eV ==== 
     psi = 0.243*[#   2]+0.243*[#   6]+0.243*[#  10]+0.243*[#  14]+
    |psi|^2 = 0.975
==== e(   4) =    -6.95839 eV ==== 
     psi = 0.196*[#   4]+0.196*[#   8]+0.196*[#  12]+0.196*[#  16]+0.039*[#   1]+
          +0.039*[#  13]+0.039*[#   5]+0.039*[#   9]+0.014*[#   7]+0.014*[#  11]+
          +0.013*[#   3]+0.013*[#  15]+
    |psi|^2 = 0.995
==== e(   5) =    -6.92435 eV ==== 
     psi = 0.195*[#  12]+0.195*[#   4]+0.195*[#   8]+0.195*[#  16]+0.039*[#   5]+
          +0.039*[#   9]+0.038*[#   1]+0.038*[#  13]+0.015*[#   3]+0.015*[#  15]+
          +0.015*[#   7]+0.015*[#  11]+
    |psi|^2 = 0.996
==== e(   6) =    -6.23008 eV ==== 
     psi = 0.246*[#   2]+0.246*[#  14]+0.246*[#   6]+0.246*[#  10]+
    |psi|^2 = 0.984
==== e(   7) =    -5.58134 eV ==== 
     psi = 0.225*[#   3]+0.225*[#  15]+0.225*[#   7]+0.225*[#  11]+0.018*[#   8]+
[...]
    |psi|^2 = 0.969
==== e(  10) =     1.09919 eV ==== 
     psi = 0.278*[#   6]+0.278*[#  10]+0.206*[#   2]+0.206*[#  14]+
    |psi|^2 = 0.968
==== e(  11) =     9.29625 eV ==== 
     psi = 0.132*[#   5]+0.132*[#   9]+0.132*[#   1]+0.132*[#  13]+0.042*[#   7]+
          +0.042*[#  11]+0.042*[#   3]+0.042*[#  15]+0.027*[#   4]+0.027*[#   8]+
          +0.027*[#  12]+0.027*[#  16]+
    |psi|^2 = 0.807
==== e(  12) =     9.47110 eV ==== 
     psi = 0.137*[#   1]+0.137*[#  13]+0.136*[#   5]+0.136*[#   9]+0.044*[#   3]+
          +0.044*[#  15]+0.044*[#   7]+0.044*[#  11]+0.029*[#   8]+0.029*[#  12]+
          +0.028*[#   4]+0.028*[#  16]+
    |psi|^2 = 0.836

 k =  -0.2500000000  0.4330127019  0.0000000000
==== e(   1) =   -15.76774 eV ==== 
     psi = 0.131*[#   5]+0.131*[#   9]+0.131*[#   1]+0.131*[#  13]+0.084*[#   4]+
          +0.084*[#   8]+0.084*[#  12]+0.084*[#  16]+0.031*[#   3]+0.031*[#  15]+
          +0.030*[#   7]+0.030*[#  11]+
    |psi|^2 = 0.982
==== e(   2) =   -15.63923 eV ==== 
     psi = 0.134*[#   1]+0.134*[#  13]+0.134*[#   5]+0.134*[#   9]+0.083*[#   4]+
          +0.083*[#   8]+0.083*[#  12]+0.083*[#  16]+0.030*[#   7]+0.030*[#  11]+
          +0.030*[#   3]+0.030*[#  15]+
    |psi|^2 = 0.987
==== e(   3) =   -11.02608 eV ==== 
     psi = 0.099*[#   4]+0.099*[#  16]+0.095*[#   8]+0.095*[#  12]+0.088*[#   1]+
          +0.088*[#  13]+0.085*[#   5]+0.085*[#   9]+0.067*[#   7]+0.067*[#  11]+
          +0.062*[#   3]+0.062*[#  15]+
    |psi|^2 = 0.994
==== e(   4) =   -11.00755 eV ==== 
     psi = 0.099*[#   8]+0.099*[#  12]+0.095*[#   4]+0.095*[#  16]+0.088*[#   5]+
          +0.088*[#   9]+0.085*[#   1]+0.085*[#  13]+0.067*[#   3]+0.067*[#  15]+
          +0.062*[#   7]+0.062*[#  11]+
    |psi|^2 = 0.994
==== e(   5) =    -9.45612 eV ==== 
     psi = 0.150*[#   7]+0.150*[#  11]+0.147*[#   3]+0.147*[#  15]+0.082*[#   4]+
          +0.082*[#  16]+0.080*[#   8]+0.080*[#  12]+0.019*[#   1]+0.019*[#  13]+
          +0.015*[#   5]+0.015*[#   9]+
    |psi|^2 = 0.987
==== e(   6) =    -9.44274 eV ==== 
     psi = 0.151*[#   3]+0.151*[#  15]+0.148*[#   7]+0.148*[#  11]+0.081*[#   8]+
          +0.081*[#  12]+0.080*[#   4]+0.080*[#  16]+0.019*[#   5]+0.019*[#   9]+
          +0.015*[#   1]+0.015*[#  13]+
    |psi|^2 = 0.988
==== e(   7) =    -3.63408 eV ==== 
     psi = 0.250*[#   6]+0.250*[#  10]+0.248*[#   2]+0.248*[#  14]+
    |psi|^2 = 0.996
==== e(   8) =    -2.82037 eV ==== 
     psi = 0.251*[#   2]+0.251*[#  14]+0.247*[#   6]+0.247*[#  10]+
    |psi|^2 = 0.996
==== e(   9) =     2.22357 eV ==== 
     psi = 0.252*[#   6]+0.252*[#  10]+0.238*[#   2]+0.238*[#  14]+
    |psi|^2 = 0.980
==== e(  10) =     2.36038 eV ==== 
     psi = 0.251*[#   2]+0.251*[#  14]+0.239*[#   6]+0.239*[#  10]+
    |psi|^2 = 0.981
==== e(  11) =     8.82073 eV ==== 
     psi = 0.001*[#   4]+0.001*[#   5]+0.001*[#   8]+0.001*[#   9]+0.001*[#  12]+
          +0.001*[#  16]+
    |psi|^2 = 0.010
==== e(  12) =     9.13737 eV ==== 
     psi = 
    |psi|^2 = 0.004

 k =   0.5000000000 -0.0000000000  0.0000000000
==== e(   1) =   -15.76622 eV ==== 
     psi = 0.131*[#   1]+0.131*[#   5]+0.131*[#   9]+0.131*[#  13]+0.111*[#   3]+
          +0.111*[#   7]+0.111*[#  11]+0.111*[#  15]+0.004*[#   4]+0.004*[#   8]+
          +0.004*[#  12]+0.004*[#  16]+
    |psi|^2 = 0.982
==== e(   2) =   -15.64076 eV ==== 
     psi = 0.134*[#   1]+0.134*[#   5]+0.134*[#   9]+0.134*[#  13]+0.109*[#   3]+
          +0.109*[#   7]+0.109*[#  11]+0.109*[#  15]+0.004*[#   4]+0.004*[#   8]+
          +0.004*[#  12]+0.004*[#  16]+
    |psi|^2 = 0.987
==== e(   3) =   -11.05902 eV ==== 
     psi = 0.114*[#   3]+0.114*[#   7]+0.114*[#  11]+0.114*[#  15]+0.087*[#   1]+
          +0.087*[#   5]+0.087*[#   9]+0.087*[#  13]+0.048*[#   4]+0.048*[#   8]+
          +0.048*[#  12]+0.048*[#  16]+
    |psi|^2 = 0.994
==== e(   4) =   -10.97071 eV ==== 
     psi = 0.114*[#   3]+0.114*[#   7]+0.114*[#  11]+0.114*[#  15]+0.087*[#   1]+
          +0.087*[#   5]+0.087*[#   9]+0.087*[#  13]+0.048*[#   4]+0.048*[#   8]+
          +0.048*[#  12]+0.048*[#  16]+
    |psi|^2 = 0.995
==== e(   5) =    -9.48273 eV ==== 
     psi = 0.182*[#   4]+0.182*[#   8]+0.182*[#  12]+0.182*[#  16]+0.048*[#   3]+
          +0.048*[#   7]+0.048*[#  11]+0.048*[#  15]+0.017*[#   1]+0.017*[#   5]+
          +0.017*[#   9]+0.017*[#  13]+
    |psi|^2 = 0.988
==== e(   6) =    -9.42014 eV ==== 
     psi = 0.183*[#   4]+0.183*[#   8]+0.183*[#  12]+0.183*[#  16]+0.046*[#   3]+
          +0.046*[#   7]+0.046*[#  11]+0.046*[#  15]+0.018*[#   1]+0.018*[#   5]+
          +0.018*[#   9]+0.018*[#  13]+
    |psi|^2 = 0.988
==== e(   7) =    -3.61051 eV ==== 
     psi = 0.249*[#   2]+0.249*[#   6]+0.249*[#  10]+0.249*[#  14]+
    |psi|^2 = 0.996
==== e(   8) =    -2.84758 eV ==== 
     psi = 0.249*[#   2]+0.249*[#   6]+0.249*[#  10]+0.249*[#  14]+
    |psi|^2 = 0.996
==== e(   9) =     1.97910 eV ==== 
     psi = 0.245*[#   2]+0.245*[#   6]+0.245*[#  10]+0.245*[#  14]+
    |psi|^2 = 0.981
==== e(  10) =     2.63380 eV ==== 
     psi = 0.246*[#   2]+0.246*[#   6]+0.246*[#  10]+0.246*[#  14]+
    |psi|^2 = 0.983
==== e(  11) =     8.82382 eV ==== 
     psi = 0.001*[#   3]+0.001*[#   7]+0.001*[#  11]+0.001*[#  15]+
    |psi|^2 = 0.011
==== e(  12) =     9.07100 eV ==== 
     psi = 
    |psi|^2 = 0.005

 k =  -0.2500000000  0.5292377468  0.0000000000
==== e(   1) =   -14.34385 eV ==== 
     psi = 0.126*[#   5]+0.126*[#   9]+0.126*[#   1]+0.126*[#  13]+0.090*[#   4]+
          +0.090*[#  16]+0.090*[#   8]+0.090*[#  12]+0.031*[#   3]+0.031*[#  15]+
          +0.031*[#   7]+0.031*[#  11]+
    |psi|^2 = 0.988
==== e(   2) =   -14.22773 eV ==== 
     psi = 0.128*[#   1]+0.128*[#  13]+0.127*[#   5]+0.127*[#   9]+0.090*[#   8]+
          +0.090*[#  12]+0.090*[#   4]+0.090*[#  16]+0.031*[#   7]+0.031*[#  11]+
          +0.031*[#   3]+0.031*[#  15]+
    |psi|^2 = 0.991
==== e(   3) =   -12.46528 eV ==== 
     psi = 0.142*[#   4]+0.142*[#  16]+0.141*[#   8]+0.141*[#  12]+0.091*[#   1]+
          +0.091*[#   5]+0.091*[#   9]+0.091*[#  13]+0.015*[#   7]+0.015*[#  11]+
          +0.015*[#   3]+0.015*[#  15]+
    |psi|^2 = 0.989
==== e(   4) =   -12.39923 eV ==== 
     psi = 0.138*[#   8]+0.138*[#  12]+0.137*[#   4]+0.137*[#  16]+0.093*[#   5]+
          +0.093*[#   9]+0.093*[#   1]+0.093*[#  13]+0.017*[#   3]+0.017*[#  15]+
          +0.017*[#   7]+0.017*[#  11]+
    |psi|^2 = 0.992
==== e(   5) =   -10.17962 eV ==== 
     psi = 0.195*[#   7]+0.195*[#  11]+0.194*[#   3]+0.194*[#  15]+0.033*[#   4]+
          +0.033*[#  16]+0.033*[#   8]+0.033*[#  12]+0.019*[#   1]+0.019*[#  13]+
          +0.019*[#   5]+0.019*[#   9]+
    |psi|^2 = 0.987
==== e(   6) =   -10.12869 eV ==== 
     psi = 0.197*[#   3]+0.197*[#  15]+0.196*[#   7]+0.197*[#  11]+0.029*[#   8]+
          +0.029*[#  12]+0.029*[#   4]+0.029*[#  16]+0.021*[#   5]+0.021*[#   9]+
          +0.021*[#   1]+0.021*[#  13]+
    |psi|^2 = 0.987
==== e(   7) =    -2.22546 eV ==== 
     psi = 0.251*[#   6]+0.251*[#  10]+0.247*[#   2]+0.247*[#  14]+
    |psi|^2 = 0.996
==== e(   8) =    -1.47336 eV ==== 
     psi = 0.253*[#   2]+0.253*[#  14]+0.245*[#   6]+0.245*[#  10]+
    |psi|^2 = 0.996
==== e(   9) =     0.67054 eV ==== 
     psi = 0.254*[#   6]+0.254*[#  10]+0.237*[#   2]+0.237*[#  14]+
    |psi|^2 = 0.982
==== e(  10) =     0.88264 eV ==== 
     psi = 0.254*[#   2]+0.254*[#  14]+0.239*[#   6]+0.239*[#  10]+
    |psi|^2 = 0.987
==== e(  11) =    10.17871 eV ==== 
     psi = 0.006*[#   5]+0.006*[#   9]+0.005*[#   1]+0.005*[#  13]+0.002*[#   2]+
          +0.002*[#  14]+0.002*[#   3]+0.002*[#  15]+0.001*[#   6]+0.001*[#  10]+
          +0.001*[#   7]+0.001*[#  11]+0.001*[#   4]+0.001*[#  16]+
    |psi|^2 = 0.038
==== e(  12) =    10.49590 eV ==== 
     psi = 0.011*[#   1]+0.011*[#  13]+0.010*[#   5]+0.010*[#   9]+0.003*[#   3]+
          +0.003*[#   7]+0.003*[#  11]+0.003*[#  15]+0.002*[#   4]+0.002*[#   8]+
          +0.002*[#  12]+0.002*[#  16]+
    |psi|^2 = 0.063

 k =  -0.3333333333  0.4811252243  0.0000000000
==== e(   1) =   -14.33779 eV ==== 
     psi = 0.126*[#   5]+0.126*[#   9]+0.125*[#   1]+0.125*[#  13]+0.079*[#   4]+
          +0.079*[#  16]+0.078*[#   8]+0.078*[#  12]+0.044*[#   3]+0.044*[#  15]+
          +0.043*[#   7]+0.043*[#  11]+
    |psi|^2 = 0.988
==== e(   2) =   -14.23474 eV ==== 
     psi = 0.129*[#   1]+0.129*[#  13]+0.127*[#   5]+0.127*[#   9]+0.077*[#   8]+
          +0.077*[#  12]+0.077*[#   4]+0.077*[#  16]+0.043*[#   7]+0.043*[#  11]+
          +0.042*[#   3]+0.042*[#  15]+
    |psi|^2 = 0.991
==== e(   3) =   -12.46172 eV ==== 
     psi = 0.127*[#   3]+0.127*[#  15]+0.127*[#   7]+0.127*[#  11]+0.091*[#   5]+
          +0.091*[#   9]+0.090*[#   1]+0.090*[#  13]+0.031*[#   4]+0.031*[#  16]+
          +0.029*[#   8]+0.029*[#  12]+
    |psi|^2 = 0.990
==== e(   4) =   -12.40063 eV ==== 
     psi = 0.123*[#   7]+0.123*[#  11]+0.123*[#   3]+0.123*[#  15]+0.094*[#   1]+
          +0.094*[#  13]+0.093*[#   5]+0.093*[#   9]+0.033*[#   8]+0.033*[#  12]+
          +0.031*[#   4]+0.031*[#  16]+
    |psi|^2 = 0.991
==== e(   5) =   -10.18125 eV ==== 
     psi = 0.142*[#   4]+0.142*[#  16]+0.142*[#   8]+0.142*[#  12]+0.086*[#   7]+
          +0.086*[#  11]+0.085*[#   3]+0.085*[#  15]+0.020*[#   1]+0.020*[#  13]+
          +0.019*[#   5]+0.019*[#   9]+
    |psi|^2 = 0.986
==== e(   6) =   -10.12836 eV ==== 
     psi = 0.146*[#   8]+0.146*[#  12]+0.145*[#   4]+0.145*[#  16]+0.081*[#   3]+
          +0.081*[#  15]+0.081*[#   7]+0.081*[#  11]+0.021*[#   5]+0.021*[#   9]+
          +0.020*[#   1]+0.020*[#  13]+
    |psi|^2 = 0.988
==== e(   7) =    -2.13373 eV ==== 
     psi = 0.259*[#   6]+0.259*[#  10]+0.238*[#   2]+0.238*[#  14]+
    |psi|^2 = 0.995
==== e(   8) =    -1.61201 eV ==== 
     psi = 0.265*[#   2]+0.265*[#  14]+0.233*[#   6]+0.233*[#  10]+
    |psi|^2 = 0.996
==== e(   9) =     0.72665 eV ==== 
     psi = 0.289*[#   6]+0.289*[#  10]+0.203*[#   2]+0.203*[#  14]+
    |psi|^2 = 0.984
==== e(  10) =     0.88438 eV ==== 
     psi = 0.284*[#   2]+0.284*[#  14]+0.209*[#   6]+0.209*[#  10]+
    |psi|^2 = 0.986
==== e(  11) =    10.11418 eV ==== 
     psi = 0.005*[#   5]+0.005*[#   9]+0.003*[#   1]+0.003*[#  13]+0.002*[#   3]+
          +0.002*[#  15]+0.001*[#   7]+0.001*[#  11]+
    |psi|^2 = 0.027
==== e(  12) =    10.55248 eV ==== 
     psi = 0.005*[#   1]+0.005*[#  13]+0.004*[#   5]+0.004*[#   9]+0.002*[#   3]+
          +0.002*[#   7]+0.002*[#  11]+0.002*[#  15]+0.001*[#   6]+0.001*[#  10]+
    |psi|^2 = 0.031

 k =   0.5833333333  0.0481125224  0.0000000000
==== e(   1) =   -14.33584 eV ==== 
     psi = 0.126*[#   1]+0.126*[#  13]+0.125*[#   5]+0.125*[#   9]+0.109*[#   7]+
          +0.109*[#  11]+0.108*[#   3]+0.108*[#  15]+0.013*[#   8]+0.013*[#  12]+
          +0.013*[#   4]+0.013*[#  16]+
    |psi|^2 = 0.988
==== e(   2) =   -14.23671 eV ==== 
     psi = 0.129*[#   5]+0.129*[#   9]+0.128*[#   1]+0.128*[#  13]+0.106*[#   3]+
          +0.106*[#  15]+0.105*[#   7]+0.105*[#  11]+0.015*[#   4]+0.015*[#  16]+
          +0.014*[#   8]+0.014*[#  12]+
    |psi|^2 = 0.991
==== e(   3) =   -12.47794 eV ==== 
     psi = 0.094*[#   7]+0.094*[#  11]+0.093*[#   3]+0.093*[#  15]+0.092*[#   1]+
          +0.092*[#  13]+0.091*[#   5]+0.091*[#   9]+0.063*[#   8]+0.063*[#  12]+
          +0.063*[#   4]+0.063*[#  16]+
    |psi|^2 = 0.990
==== e(   4) =   -12.38319 eV ==== 
     psi = 0.093*[#   5]+0.093*[#   9]+0.092*[#   3]+0.092*[#  15]+0.092*[#   1]+
          +0.092*[#  13]+0.091*[#   7]+0.091*[#  11]+0.064*[#   4]+0.064*[#  16]+
          +0.063*[#   8]+0.063*[#  12]+
    |psi|^2 = 0.991
==== e(   5) =   -10.18811 eV ==== 
     psi = 0.165*[#   8]+0.165*[#   4]+0.165*[#  12]+0.165*[#  16]+0.063*[#   3]+
          +0.063*[#  15]+0.062*[#   7]+0.062*[#  11]+0.020*[#   5]+0.020*[#   9]+
          +0.019*[#   1]+0.019*[#  13]+
    |psi|^2 = 0.986
==== e(   6) =   -10.12273 eV ==== 
     psi = 0.166*[#   4]+0.166*[#  16]+0.166*[#   8]+0.166*[#  12]+0.061*[#   7]+
          +0.061*[#  11]+0.060*[#   3]+0.060*[#  15]+0.021*[#   1]+0.021*[#  13]+
          +0.020*[#   5]+0.020*[#   9]+
    |psi|^2 = 0.988
==== e(   7) =    -2.11328 eV ==== 
     psi = 0.257*[#   2]+0.257*[#  14]+0.241*[#   6]+0.241*[#  10]+
    |psi|^2 = 0.995
==== e(   8) =    -1.62065 eV ==== 
     psi = 0.261*[#   6]+0.261*[#  10]+0.237*[#   2]+0.237*[#  14]+
    |psi|^2 = 0.996
==== e(   9) =     0.49343 eV ==== 
     psi = 0.256*[#   2]+0.256*[#  14]+0.236*[#   6]+0.236*[#  10]+
    |psi|^2 = 0.985
==== e(  10) =     1.11635 eV ==== 
     psi = 0.252*[#   6]+0.252*[#  10]+0.240*[#   2]+0.240*[#  14]+
    |psi|^2 = 0.985
==== e(  11) =     9.96935 eV ==== 
     psi = 0.005*[#   1]+0.005*[#  13]+0.004*[#   5]+0.004*[#   9]+0.001*[#   3]+
          +0.001*[#   7]+0.001*[#   8]+0.001*[#  11]+0.001*[#  12]+0.001*[#  15]+
    |psi|^2 = 0.029
==== e(  12) =    10.69528 eV ==== 
     psi = 0.014*[#   1]+0.014*[#  13]+0.013*[#   5]+0.013*[#   9]+0.004*[#   8]+
          +0.004*[#  12]+0.004*[#   4]+0.004*[#  16]+0.003*[#   3]+0.003*[#  15]+
          +0.003*[#   7]+0.003*[#  11]+
    |psi|^2 = 0.085

 k =  -0.3333333333 -0.4811252243  0.0000000000
==== e(   1) =   -14.33779 eV ==== 
     psi = 0.126*[#   1]+0.126*[#  13]+0.125*[#   5]+0.125*[#   9]+0.079*[#   8]+
          +0.079*[#  12]+0.078*[#   4]+0.078*[#  16]+0.044*[#   7]+0.044*[#  11]+
          +0.043*[#   3]+0.043*[#  15]+
    |psi|^2 = 0.988
==== e(   2) =   -14.23474 eV ==== 
     psi = 0.129*[#   5]+0.129*[#   9]+0.127*[#   1]+0.127*[#  13]+0.077*[#   4]+
          +0.077*[#  16]+0.077*[#   8]+0.077*[#  12]+0.043*[#   3]+0.043*[#  15]+
          +0.042*[#   7]+0.042*[#  11]+
    |psi|^2 = 0.991
==== e(   3) =   -12.46172 eV ==== 
     psi = 0.127*[#   7]+0.127*[#  11]+0.127*[#   3]+0.127*[#  15]+0.091*[#   1]+
          +0.091*[#  13]+0.090*[#   5]+0.090*[#   9]+0.031*[#   8]+0.031*[#  12]+
          +0.029*[#   4]+0.029*[#  16]+
    |psi|^2 = 0.990
==== e(   4) =   -12.40063 eV ==== 
     psi = 0.123*[#   3]+0.123*[#  15]+0.123*[#   7]+0.123*[#  11]+0.094*[#   5]+
          +0.094*[#   9]+0.093*[#   1]+0.093*[#  13]+0.033*[#   4]+0.033*[#  16]+
          +0.031*[#   8]+0.031*[#  12]+
    |psi|^2 = 0.991
==== e(   5) =   -10.18125 eV ==== 
     psi = 0.142*[#   8]+0.142*[#  12]+0.142*[#   4]+0.142*[#  16]+0.086*[#   3]+
          +0.086*[#  15]+0.085*[#   7]+0.085*[#  11]+0.020*[#   5]+0.020*[#   9]+
          +0.019*[#   1]+0.019*[#  13]+
    |psi|^2 = 0.986
==== e(   6) =   -10.12836 eV ==== 
     psi = 0.146*[#   4]+0.146*[#  16]+0.145*[#   8]+0.145*[#  12]+0.081*[#   7]+
          +0.081*[#  11]+0.081*[#   3]+0.081*[#  15]+0.021*[#   1]+0.021*[#  13]+
          +0.020*[#   5]+0.020*[#   9]+
    |psi|^2 = 0.988
==== e(   7) =    -2.13373 eV ==== 
     psi = 0.259*[#   2]+0.259*[#  14]+0.238*[#   6]+0.238*[#  10]+
    |psi|^2 = 0.995
==== e(   8) =    -1.61201 eV ==== 
     psi = 0.265*[#   6]+0.265*[#  10]+0.233*[#   2]+0.233*[#  14]+
    |psi|^2 = 0.996
==== e(   9) =     0.72665 eV ==== 
     psi = 0.289*[#   2]+0.289*[#  14]+0.203*[#   6]+0.203*[#  10]+
    |psi|^2 = 0.984
==== e(  10) =     0.88438 eV ==== 
     psi = 0.284*[#   6]+0.284*[#  10]+0.209*[#   2]+0.209*[#  14]+
    |psi|^2 = 0.986
==== e(  11) =    10.11418 eV ==== 
     psi = 0.005*[#   1]+0.005*[#  13]+0.003*[#   5]+0.003*[#   9]+0.002*[#   7]+
          +0.002*[#  11]+0.001*[#   3]+0.001*[#  15]+
    |psi|^2 = 0.027
==== e(  12) =    10.55248 eV ==== 
     psi = 0.005*[#   5]+0.005*[#   9]+0.004*[#   1]+0.004*[#  13]+0.002*[#   3]+
          +0.002*[#   7]+0.002*[#  11]+0.002*[#  15]+0.001*[#   2]+0.001*[#  14]+
    |psi|^2 = 0.031

 k =   0.5833333333 -0.0481125224  0.0000000000
==== e(   1) =   -14.33584 eV ==== 
     psi = 0.126*[#   5]+0.126*[#   9]+0.125*[#   1]+0.125*[#  13]+0.109*[#   3]+
          +0.109*[#  15]+0.108*[#   7]+0.108*[#  11]+0.013*[#   4]+0.013*[#  16]+
          +0.013*[#   8]+0.013*[#  12]+
    |psi|^2 = 0.988
==== e(   2) =   -14.23671 eV ==== 
     psi = 0.129*[#   1]+0.129*[#  13]+0.128*[#   5]+0.128*[#   9]+0.106*[#   7]+
          +0.106*[#  11]+0.105*[#   3]+0.105*[#  15]+0.015*[#   8]+0.015*[#  12]+
          +0.014*[#   4]+0.014*[#  16]+
    |psi|^2 = 0.991
==== e(   3) =   -12.47794 eV ==== 
     psi = 0.094*[#   3]+0.094*[#  15]+0.093*[#   7]+0.093*[#  11]+0.092*[#   5]+
          +0.092*[#   9]+0.091*[#   1]+0.091*[#  13]+0.063*[#   4]+0.063*[#  16]+
          +0.063*[#   8]+0.063*[#  12]+
    |psi|^2 = 0.990
==== e(   4) =   -12.38319 eV ==== 
     psi = 0.093*[#   1]+0.093*[#  13]+0.092*[#   7]+0.092*[#  11]+0.092*[#   5]+
          +0.092*[#   9]+0.091*[#   3]+0.091*[#  15]+0.064*[#   8]+0.064*[#  12]+
          +0.063*[#   4]+0.063*[#  16]+
    |psi|^2 = 0.991
==== e(   5) =   -10.18811 eV ==== 
     psi = 0.165*[#   4]+0.165*[#   8]+0.165*[#  16]+0.165*[#  12]+0.063*[#   7]+
          +0.063*[#  11]+0.062*[#   3]+0.062*[#  15]+0.020*[#   1]+0.020*[#  13]+
          +0.019*[#   5]+0.019*[#   9]+
    |psi|^2 = 0.986
==== e(   6) =   -10.12273 eV ==== 
     psi = 0.166*[#   8]+0.166*[#  12]+0.166*[#   4]+0.166*[#  16]+0.061*[#   3]+
          +0.061*[#  15]+0.060*[#   7]+0.060*[#  11]+0.021*[#   5]+0.021*[#   9]+
          +0.020*[#   1]+0.020*[#  13]+
    |psi|^2 = 0.988
==== e(   7) =    -2.11328 eV ==== 
     psi = 0.257*[#   6]+0.257*[#  10]+0.241*[#   2]+0.241*[#  14]+
    |psi|^2 = 0.995
==== e(   8) =    -1.62065 eV ==== 
     psi = 0.261*[#   2]+0.261*[#  14]+0.237*[#   6]+0.237*[#  10]+
    |psi|^2 = 0.996
==== e(   9) =     0.49343 eV ==== 
     psi = 0.256*[#   6]+0.256*[#  10]+0.236*[#   2]+0.236*[#  14]+
    |psi|^2 = 0.985
==== e(  10) =     1.11635 eV ==== 
     psi = 0.252*[#   2]+0.252*[#  14]+0.240*[#   6]+0.240*[#  10]+
    |psi|^2 = 0.985
==== e(  11) =     9.96935 eV ==== 
     psi = 0.005*[#   5]+0.005*[#   9]+0.004*[#   1]+0.004*[#  13]+0.001*[#   3]+
          +0.001*[#   4]+0.001*[#   7]+0.001*[#  11]+0.001*[#  15]+0.001*[#  16]+
    |psi|^2 = 0.029
==== e(  12) =    10.69528 eV ==== 
     psi = 0.014*[#   5]+0.014*[#   9]+0.013*[#   1]+0.013*[#  13]+0.004*[#   4]+
          +0.004*[#  16]+0.004*[#   8]+0.004*[#  12]+0.003*[#   7]+0.003*[#  11]+
          +0.003*[#   3]+0.003*[#  15]+
    |psi|^2 = 0.085

Lowdin Charges: 

     Atom #   1: total charge =   3.9581, s =  0.9180, p =  3.0401, 
                 spin up      =   1.9790, s =  0.4590, 
                 spin up      =   1.9790, p =  1.5200, pz=  0.4947, px=  0.5127, py=  0.5127, 
                 spin down    =   1.9790, s =  0.4590, 
                 spin down    =   1.9790, p =  1.5200, pz=  0.4947, px=  0.5127, py=  0.5127, 
                 polarization =  -0.0000, s = -0.0000, p = -0.0000, 
     Atom #   2: total charge =   3.9581, s =  0.9180, p =  3.0401, 
                 spin up      =   1.9790, s =  0.4590, 
                 spin up      =   1.9790, p =  1.5200, pz=  0.4947, px=  0.5127, py=  0.5127, 
                 spin down    =   1.9790, s =  0.4590, 
                 spin down    =   1.9790, p =  1.5200, pz=  0.4947, px=  0.5127, py=  0.5127, 
                 polarization =   0.0000, s =  0.0000, p =  0.0000, 
     Atom #   3: total charge =   3.9581, s =  0.9180, p =  3.0401, 
                 spin up      =   1.9790, s =  0.4590, 
                 spin up      =   1.9790, p =  1.5200, pz=  0.4947, px=  0.5127, py=  0.5127, 
                 spin down    =   1.9790, s =  0.4590, 
                 spin down    =   1.9790, p =  1.5200, pz=  0.4947, px=  0.5127, py=  0.5127, 
                 polarization =   0.0000, s =  0.0000, p =  0.0000, 
     Atom #   4: total charge =   3.9581, s =  0.9180, p =  3.0401, 
                 spin up      =   1.9790, s =  0.4590, 
                 spin up      =   1.9790, p =  1.5200, pz=  0.4947, px=  0.5127, py=  0.5127, 
                 spin down    =   1.9790, s =  0.4590, 
                 spin down    =   1.9790, p =  1.5200, pz=  0.4947, px=  0.5127, py=  0.5127, 
                 polarization =  -0.0000, s =  0.0000, p = -0.0000, 
     Spilling Parameter:   0.0105
