
     Program PWSCF v.5.1 starts on  1May2020 at  6:27: 3 

     This program is part of the open-source Quantum ESPRESSO suite
     for quantum simulation of materials; please cite
         "P. Giannozzi et al., J. Phys.:Condens. Matter 21 395502 (2009);
          URL http://www.quantum-espresso.org", 
     in publications or presentations arising from this work. More details at
     http://www.quantum-espresso.org/quote

     Parallel version (MPI), running on     1 processors
     Waiting for input...
     Reading input from standard input

     Current dimensions of program PWSCF are:
     Max number of different atomic species (ntypx) = 10
     Max number of k-points (npk) =  40000
     Max angular momentum in pseudopotentials (lmaxx) =  3

     IMPORTANT: XC functional enforced from input :
     Exchange-correlation      = PBE ( 1  4  3  4 0)
     Any further DFT definition will be discarded
     Please, verify this is what you really want

               file C.pbe-rrkjus.UPF: wavefunction(s)  2S 2P renormalized

     Subspace diagonalization in iterative solution of the eigenvalue problem:
     a serial algorithm will be used


     G-vector sticks info
     --------------------
     sticks:   dense  smooth     PW     G-vecs:    dense   smooth      PW
     Sum         595     241     85                96043    24369    4587

     Generating pointlists ...
     new r_m :   0.2381 (alat units)  1.1104 (a.u.) for type    1

     Title: 
     graphene                                                                   


     bravais-lattice index     =           12
     lattice parameter (alat)  =       4.6627  a.u.
     unit-cell volume          =     711.6007 (a.u.)^3
     number of atoms/cell      =            4
     number of atomic types    =            1
     number of electrons       =        16.00
     number of Kohn-Sham states=           16
     kinetic-energy cutoff     =      40.0000  Ry
     charge density cutoff     =     400.0000  Ry
     convergence threshold     =      1.0E-10
     mixing beta               =       0.3000
     number of iterations used =            8  plain     mixing
     Exchange-correlation      = PBE ( 1  4  3  4 0)

     celldm(1)=   4.662710  celldm(2)=   1.000000  celldm(3)=   8.105698
     celldm(4)=  -0.500000  celldm(5)=   0.000000  celldm(6)=   0.000000

     crystal axes: (cart. coord. in units of alat)
               a(1) = (   1.000000   0.000000   0.000000 )  
               a(2) = (  -0.500000   0.866025   0.000000 )  
               a(3) = (   0.000000   0.000000   8.105698 )  

     reciprocal axes: (cart. coord. in units 2 pi/alat)
               b(1) = (  1.000000  0.577350 -0.000000 )  
               b(2) = (  0.000000  1.154701  0.000000 )  
               b(3) = (  0.000000 -0.000000  0.123370 )  


     PseudoPot. # 1 for C  read from file:
     ../pseudo/C.pbe-rrkjus.UPF
     MD5 check sum: 00fb224312de0c5b6853bd333518df6f
     Pseudo is Ultrasoft, Zval =  4.0
     Generated by new atomic code, or converted to UPF format
     Using radial grid of  627 points,  4 beta functions with: 
                l(1) =   0
                l(2) =   0
                l(3) =   1
                l(4) =   1
     Q(r) pseudized with 0 coefficients 


     atomic species   valence    mass     pseudopotential
        C              4.00    12.01100     C ( 1.00)

     Starting magnetic structure 
     atomic species   magnetization
        C           -0.500

     No symmetry found
          (note:  3 additional sym.ops. were found but ignored
           their fractional translations are incommensurate with FFT grid)

                                    s                        frac. trans.

      isym =  1     identity                                     

 cryst.   s( 1) = (     1          0          0      )
                  (     0          1          0      )
                  (     0          0          1      )

 cart.    s( 1) = (  1.0000000  0.0000000  0.0000000 )
                  (  0.0000000  1.0000000  0.0000000 )
                  (  0.0000000  0.0000000  1.0000000 )


     point group C_1 (1)    
     there are  1 classes
     the character table:

       E    
A      1.00

     the symmetry operations in each class:
     E        1

   Cartesian axes

     site n.     atom                  positions (alat units)
         1           C   tau(   1) = (   0.0000000   0.0000000   2.0264246  )
         2           C   tau(   2) = (   0.0000000   0.5773284   2.0264246  )
         3           C   tau(   3) = (   0.5673989   0.0000000   3.3638648  )
         4           C   tau(   4) = (   0.5673989   0.5773284   3.3638648  )

   Crystallographic axes

     site n.     atom                  positions (cryst. coord.)
         1           C   tau(   1) = (  0.0000000  0.0000000  0.2500000  )
         2           C   tau(   2) = (  0.3333207  0.6666414  0.2500000  )
         3           C   tau(   3) = (  0.5673989  0.0000000  0.4150000  )
         4           C   tau(   4) = (  0.9007196  0.6666414  0.4150000  )

     number of k points=   148  Marzari-Vanderbilt smearing, width (Ry)=  0.0001
                       cart. coord. in units 2pi/alat
        k(    1) = (   0.0000000   0.0000000   0.0000000), wk =   0.0069444
        k(    2) = (   0.0000000   0.0962250   0.0000000), wk =   0.0138889
        k(    3) = (   0.0000000   0.1924501   0.0000000), wk =   0.0138889
        k(    4) = (   0.0000000   0.2886751   0.0000000), wk =   0.0138889
        k(    5) = (   0.0000000   0.3849002   0.0000000), wk =   0.0138889
        k(    6) = (   0.0000000   0.4811252   0.0000000), wk =   0.0138889
        k(    7) = (   0.0000000  -0.5773503   0.0000000), wk =   0.0069444
        k(    8) = (   0.0833333   0.1443376   0.0000000), wk =   0.0138889
        k(    9) = (   0.0833333   0.2405626   0.0000000), wk =   0.0138889
        k(   10) = (   0.0833333   0.3367877   0.0000000), wk =   0.0138889
        k(   11) = (   0.0833333   0.4330127   0.0000000), wk =   0.0138889
        k(   12) = (   0.0833333   0.5292377   0.0000000), wk =   0.0138889
        k(   13) = (   0.1666667   0.2886751   0.0000000), wk =   0.0138889
        k(   14) = (   0.1666667   0.3849002   0.0000000), wk =   0.0138889
        k(   15) = (   0.1666667   0.4811252   0.0000000), wk =   0.0138889
        k(   16) = (   0.1666667   0.5773503   0.0000000), wk =   0.0138889
        k(   17) = (   0.2500000   0.4330127   0.0000000), wk =   0.0138889
        k(   18) = (   0.2500000   0.5292377   0.0000000), wk =   0.0138889
        k(   19) = (   0.3333333   0.5773503   0.0000000), wk =   0.0138889
        k(   20) = (  -0.0833333   0.0481125   0.0000000), wk =   0.0138889
        k(   21) = (   0.0833333   0.0481125   0.0000000), wk =   0.0138889
        k(   22) = (  -0.1666667   0.0962250   0.0000000), wk =   0.0138889
        k(   23) = (   0.1666667   0.0962250   0.0000000), wk =   0.0138889
        k(   24) = (  -0.2500000   0.1443376   0.0000000), wk =   0.0138889
        k(   25) = (   0.2500000   0.1443376   0.0000000), wk =   0.0138889
        k(   26) = (  -0.3333333   0.1924501   0.0000000), wk =   0.0138889
        k(   27) = (   0.3333333   0.1924501   0.0000000), wk =   0.0138889
        k(   28) = (  -0.4166667   0.2405626   0.0000000), wk =   0.0138889
        k(   29) = (   0.4166667   0.2405626   0.0000000), wk =   0.0138889
        k(   30) = (   0.5000000  -0.2886751   0.0000000), wk =   0.0069444
        k(   31) = (  -0.5000000  -0.2886751   0.0000000), wk =   0.0069444
        k(   32) = (  -0.0833333   0.1443376   0.0000000), wk =   0.0138889
        k(   33) = (   0.1666667  -0.0000000   0.0000000), wk =   0.0138889
        k(   34) = (  -0.0833333   0.2405626   0.0000000), wk =   0.0138889
        k(   35) = (  -0.1666667   0.1924501   0.0000000), wk =   0.0138889
        k(   36) = (   0.2500000   0.0481125   0.0000000), wk =   0.0138889
        k(   37) = (  -0.1666667  -0.1924501   0.0000000), wk =   0.0138889
        k(   38) = (   0.2500000  -0.0481125   0.0000000), wk =   0.0138889
        k(   39) = (  -0.0833333   0.3367877   0.0000000), wk =   0.0138889
        k(   40) = (  -0.2500000   0.2405626   0.0000000), wk =   0.0138889
        k(   41) = (   0.3333333   0.0962250   0.0000000), wk =   0.0138889
        k(   42) = (  -0.2500000  -0.2405626   0.0000000), wk =   0.0138889
        k(   43) = (   0.3333333  -0.0962250   0.0000000), wk =   0.0138889
        k(   44) = (  -0.0833333   0.4330127   0.0000000), wk =   0.0138889
        k(   45) = (  -0.3333333   0.2886751   0.0000000), wk =   0.0138889
        k(   46) = (   0.4166667   0.1443376   0.0000000), wk =   0.0138889
        k(   47) = (  -0.3333333  -0.2886751   0.0000000), wk =   0.0138889
        k(   48) = (   0.4166667  -0.1443376   0.0000000), wk =   0.0138889
        k(   49) = (  -0.0833333   0.5292377   0.0000000), wk =   0.0138889
        k(   50) = (  -0.4166667   0.3367877   0.0000000), wk =   0.0138889
        k(   51) = (   0.5000000   0.1924501   0.0000000), wk =   0.0138889
        k(   52) = (  -0.4166667  -0.3367877   0.0000000), wk =   0.0138889
        k(   53) = (   0.5000000  -0.1924501   0.0000000), wk =   0.0138889
        k(   54) = (  -0.1666667   0.2886751   0.0000000), wk =   0.0138889
        k(   55) = (   0.3333333  -0.0000000   0.0000000), wk =   0.0138889
        k(   56) = (  -0.1666667   0.3849002   0.0000000), wk =   0.0138889
        k(   57) = (  -0.2500000   0.3367877   0.0000000), wk =   0.0138889
        k(   58) = (   0.4166667   0.0481125   0.0000000), wk =   0.0138889
        k(   59) = (  -0.2500000  -0.3367877   0.0000000), wk =   0.0138889
        k(   60) = (   0.4166667  -0.0481125   0.0000000), wk =   0.0138889
        k(   61) = (  -0.1666667   0.4811252   0.0000000), wk =   0.0138889
        k(   62) = (  -0.3333333   0.3849002   0.0000000), wk =   0.0138889
        k(   63) = (   0.5000000   0.0962250   0.0000000), wk =   0.0138889
        k(   64) = (  -0.3333333  -0.3849002   0.0000000), wk =   0.0138889
        k(   65) = (   0.5000000  -0.0962250   0.0000000), wk =   0.0138889
        k(   66) = (  -0.4166667   0.4330127   0.0000000), wk =   0.0138889
        k(   67) = (   0.5833333   0.1443376   0.0000000), wk =   0.0138889
        k(   68) = (  -0.2500000   0.4330127   0.0000000), wk =   0.0138889
        k(   69) = (   0.5000000   0.0000000   0.0000000), wk =   0.0138889
        k(   70) = (  -0.2500000   0.5292377   0.0000000), wk =   0.0138889
        k(   71) = (  -0.3333333   0.4811252   0.0000000), wk =   0.0138889
        k(   72) = (   0.5833333   0.0481125   0.0000000), wk =   0.0138889
        k(   73) = (  -0.3333333  -0.4811252   0.0000000), wk =   0.0138889
        k(   74) = (   0.5833333  -0.0481125   0.0000000), wk =   0.0138889
        k(   75) = (   0.0000000   0.0000000   0.0000000), wk =   0.0069444
        k(   76) = (   0.0000000   0.0962250   0.0000000), wk =   0.0138889
        k(   77) = (   0.0000000   0.1924501   0.0000000), wk =   0.0138889
        k(   78) = (   0.0000000   0.2886751   0.0000000), wk =   0.0138889
        k(   79) = (   0.0000000   0.3849002   0.0000000), wk =   0.0138889
        k(   80) = (   0.0000000   0.4811252   0.0000000), wk =   0.0138889
        k(   81) = (   0.0000000  -0.5773503   0.0000000), wk =   0.0069444
        k(   82) = (   0.0833333   0.1443376   0.0000000), wk =   0.0138889
        k(   83) = (   0.0833333   0.2405626   0.0000000), wk =   0.0138889
        k(   84) = (   0.0833333   0.3367877   0.0000000), wk =   0.0138889
        k(   85) = (   0.0833333   0.4330127   0.0000000), wk =   0.0138889
        k(   86) = (   0.0833333   0.5292377   0.0000000), wk =   0.0138889
        k(   87) = (   0.1666667   0.2886751   0.0000000), wk =   0.0138889
        k(   88) = (   0.1666667   0.3849002   0.0000000), wk =   0.0138889
        k(   89) = (   0.1666667   0.4811252   0.0000000), wk =   0.0138889
        k(   90) = (   0.1666667   0.5773503   0.0000000), wk =   0.0138889
        k(   91) = (   0.2500000   0.4330127   0.0000000), wk =   0.0138889
        k(   92) = (   0.2500000   0.5292377   0.0000000), wk =   0.0138889
        k(   93) = (   0.3333333   0.5773503   0.0000000), wk =   0.0138889
        k(   94) = (  -0.0833333   0.0481125   0.0000000), wk =   0.0138889
        k(   95) = (   0.0833333   0.0481125   0.0000000), wk =   0.0138889
        k(   96) = (  -0.1666667   0.0962250   0.0000000), wk =   0.0138889
        k(   97) = (   0.1666667   0.0962250   0.0000000), wk =   0.0138889
        k(   98) = (  -0.2500000   0.1443376   0.0000000), wk =   0.0138889
        k(   99) = (   0.2500000   0.1443376   0.0000000), wk =   0.0138889
        k(  100) = (  -0.3333333   0.1924501   0.0000000), wk =   0.0138889
        k(  101) = (   0.3333333   0.1924501   0.0000000), wk =   0.0138889
        k(  102) = (  -0.4166667   0.2405626   0.0000000), wk =   0.0138889
        k(  103) = (   0.4166667   0.2405626   0.0000000), wk =   0.0138889
        k(  104) = (   0.5000000  -0.2886751   0.0000000), wk =   0.0069444
        k(  105) = (  -0.5000000  -0.2886751   0.0000000), wk =   0.0069444
        k(  106) = (  -0.0833333   0.1443376   0.0000000), wk =   0.0138889
        k(  107) = (   0.1666667  -0.0000000   0.0000000), wk =   0.0138889
        k(  108) = (  -0.0833333   0.2405626   0.0000000), wk =   0.0138889
        k(  109) = (  -0.1666667   0.1924501   0.0000000), wk =   0.0138889
        k(  110) = (   0.2500000   0.0481125   0.0000000), wk =   0.0138889
        k(  111) = (  -0.1666667  -0.1924501   0.0000000), wk =   0.0138889
        k(  112) = (   0.2500000  -0.0481125   0.0000000), wk =   0.0138889
        k(  113) = (  -0.0833333   0.3367877   0.0000000), wk =   0.0138889
        k(  114) = (  -0.2500000   0.2405626   0.0000000), wk =   0.0138889
        k(  115) = (   0.3333333   0.0962250   0.0000000), wk =   0.0138889
        k(  116) = (  -0.2500000  -0.2405626   0.0000000), wk =   0.0138889
        k(  117) = (   0.3333333  -0.0962250   0.0000000), wk =   0.0138889
        k(  118) = (  -0.0833333   0.4330127   0.0000000), wk =   0.0138889
        k(  119) = (  -0.3333333   0.2886751   0.0000000), wk =   0.0138889
        k(  120) = (   0.4166667   0.1443376   0.0000000), wk =   0.0138889
        k(  121) = (  -0.3333333  -0.2886751   0.0000000), wk =   0.0138889
        k(  122) = (   0.4166667  -0.1443376   0.0000000), wk =   0.0138889
        k(  123) = (  -0.0833333   0.5292377   0.0000000), wk =   0.0138889
        k(  124) = (  -0.4166667   0.3367877   0.0000000), wk =   0.0138889
        k(  125) = (   0.5000000   0.1924501   0.0000000), wk =   0.0138889
        k(  126) = (  -0.4166667  -0.3367877   0.0000000), wk =   0.0138889
        k(  127) = (   0.5000000  -0.1924501   0.0000000), wk =   0.0138889
        k(  128) = (  -0.1666667   0.2886751   0.0000000), wk =   0.0138889
        k(  129) = (   0.3333333  -0.0000000   0.0000000), wk =   0.0138889
        k(  130) = (  -0.1666667   0.3849002   0.0000000), wk =   0.0138889
        k(  131) = (  -0.2500000   0.3367877   0.0000000), wk =   0.0138889
        k(  132) = (   0.4166667   0.0481125   0.0000000), wk =   0.0138889
        k(  133) = (  -0.2500000  -0.3367877   0.0000000), wk =   0.0138889
        k(  134) = (   0.4166667  -0.0481125   0.0000000), wk =   0.0138889
        k(  135) = (  -0.1666667   0.4811252   0.0000000), wk =   0.0138889
        k(  136) = (  -0.3333333   0.3849002   0.0000000), wk =   0.0138889
        k(  137) = (   0.5000000   0.0962250   0.0000000), wk =   0.0138889
        k(  138) = (  -0.3333333  -0.3849002   0.0000000), wk =   0.0138889
        k(  139) = (   0.5000000  -0.0962250   0.0000000), wk =   0.0138889
        k(  140) = (  -0.4166667   0.4330127   0.0000000), wk =   0.0138889
        k(  141) = (   0.5833333   0.1443376   0.0000000), wk =   0.0138889
        k(  142) = (  -0.2500000   0.4330127   0.0000000), wk =   0.0138889
        k(  143) = (   0.5000000   0.0000000   0.0000000), wk =   0.0138889
        k(  144) = (  -0.2500000   0.5292377   0.0000000), wk =   0.0138889
        k(  145) = (  -0.3333333   0.4811252   0.0000000), wk =   0.0138889
        k(  146) = (   0.5833333   0.0481125   0.0000000), wk =   0.0138889
        k(  147) = (  -0.3333333  -0.4811252   0.0000000), wk =   0.0138889
        k(  148) = (   0.5833333  -0.0481125   0.0000000), wk =   0.0138889

                       cryst. coord.
        k(    1) = (   0.0000000   0.0000000   0.0000000), wk =   0.0069444
        k(    2) = (   0.0000000   0.0833333   0.0000000), wk =   0.0138889
        k(    3) = (   0.0000000   0.1666667   0.0000000), wk =   0.0138889
        k(    4) = (   0.0000000   0.2500000   0.0000000), wk =   0.0138889
        k(    5) = (   0.0000000   0.3333333   0.0000000), wk =   0.0138889
        k(    6) = (   0.0000000   0.4166667   0.0000000), wk =   0.0138889
        k(    7) = (   0.0000000  -0.5000000   0.0000000), wk =   0.0069444
        k(    8) = (   0.0833333   0.0833333   0.0000000), wk =   0.0138889
        k(    9) = (   0.0833333   0.1666667   0.0000000), wk =   0.0138889
        k(   10) = (   0.0833333   0.2500000   0.0000000), wk =   0.0138889
        k(   11) = (   0.0833333   0.3333333   0.0000000), wk =   0.0138889
        k(   12) = (   0.0833333   0.4166667   0.0000000), wk =   0.0138889
        k(   13) = (   0.1666667   0.1666667   0.0000000), wk =   0.0138889
        k(   14) = (   0.1666667   0.2500000   0.0000000), wk =   0.0138889
        k(   15) = (   0.1666667   0.3333333   0.0000000), wk =   0.0138889
        k(   16) = (   0.1666667   0.4166667   0.0000000), wk =   0.0138889
        k(   17) = (   0.2500000   0.2500000   0.0000000), wk =   0.0138889
        k(   18) = (   0.2500000   0.3333333   0.0000000), wk =   0.0138889
        k(   19) = (   0.3333333   0.3333333   0.0000000), wk =   0.0138889
        k(   20) = (  -0.0833333   0.0833333   0.0000000), wk =   0.0138889
        k(   21) = (   0.0833333   0.0000000   0.0000000), wk =   0.0138889
        k(   22) = (  -0.1666667   0.1666667   0.0000000), wk =   0.0138889
        k(   23) = (   0.1666667   0.0000000   0.0000000), wk =   0.0138889
        k(   24) = (  -0.2500000   0.2500000   0.0000000), wk =   0.0138889
        k(   25) = (   0.2500000   0.0000000   0.0000000), wk =   0.0138889
        k(   26) = (  -0.3333333   0.3333333   0.0000000), wk =   0.0138889
        k(   27) = (   0.3333333   0.0000000   0.0000000), wk =   0.0138889
        k(   28) = (  -0.4166667   0.4166667   0.0000000), wk =   0.0138889
        k(   29) = (   0.4166667   0.0000000   0.0000000), wk =   0.0138889
        k(   30) = (   0.5000000  -0.5000000   0.0000000), wk =   0.0069444
        k(   31) = (  -0.5000000   0.0000000   0.0000000), wk =   0.0069444
        k(   32) = (  -0.0833333   0.1666667   0.0000000), wk =   0.0138889
        k(   33) = (   0.1666667  -0.0833333   0.0000000), wk =   0.0138889
        k(   34) = (  -0.0833333   0.2500000   0.0000000), wk =   0.0138889
        k(   35) = (  -0.1666667   0.2500000   0.0000000), wk =   0.0138889
        k(   36) = (   0.2500000  -0.0833333   0.0000000), wk =   0.0138889
        k(   37) = (  -0.1666667  -0.0833333   0.0000000), wk =   0.0138889
        k(   38) = (   0.2500000  -0.1666667   0.0000000), wk =   0.0138889
        k(   39) = (  -0.0833333   0.3333333   0.0000000), wk =   0.0138889
        k(   40) = (  -0.2500000   0.3333333   0.0000000), wk =   0.0138889
        k(   41) = (   0.3333333  -0.0833333   0.0000000), wk =   0.0138889
        k(   42) = (  -0.2500000  -0.0833333   0.0000000), wk =   0.0138889
        k(   43) = (   0.3333333  -0.2500000   0.0000000), wk =   0.0138889
        k(   44) = (  -0.0833333   0.4166667   0.0000000), wk =   0.0138889
        k(   45) = (  -0.3333333   0.4166667   0.0000000), wk =   0.0138889
        k(   46) = (   0.4166667  -0.0833333   0.0000000), wk =   0.0138889
        k(   47) = (  -0.3333333  -0.0833333   0.0000000), wk =   0.0138889
        k(   48) = (   0.4166667  -0.3333333   0.0000000), wk =   0.0138889
        k(   49) = (  -0.0833333   0.5000000   0.0000000), wk =   0.0138889
        k(   50) = (  -0.4166667   0.5000000   0.0000000), wk =   0.0138889
        k(   51) = (   0.5000000  -0.0833333   0.0000000), wk =   0.0138889
        k(   52) = (  -0.4166667  -0.0833333   0.0000000), wk =   0.0138889
        k(   53) = (   0.5000000  -0.4166667   0.0000000), wk =   0.0138889
        k(   54) = (  -0.1666667   0.3333333   0.0000000), wk =   0.0138889
        k(   55) = (   0.3333333  -0.1666667   0.0000000), wk =   0.0138889
        k(   56) = (  -0.1666667   0.4166667   0.0000000), wk =   0.0138889
        k(   57) = (  -0.2500000   0.4166667   0.0000000), wk =   0.0138889
        k(   58) = (   0.4166667  -0.1666667   0.0000000), wk =   0.0138889
        k(   59) = (  -0.2500000  -0.1666667   0.0000000), wk =   0.0138889
        k(   60) = (   0.4166667  -0.2500000   0.0000000), wk =   0.0138889
        k(   61) = (  -0.1666667   0.5000000   0.0000000), wk =   0.0138889
        k(   62) = (  -0.3333333   0.5000000   0.0000000), wk =   0.0138889
        k(   63) = (   0.5000000  -0.1666667   0.0000000), wk =   0.0138889
        k(   64) = (  -0.3333333  -0.1666667   0.0000000), wk =   0.0138889
        k(   65) = (   0.5000000  -0.3333333   0.0000000), wk =   0.0138889
        k(   66) = (  -0.4166667   0.5833333   0.0000000), wk =   0.0138889
        k(   67) = (   0.5833333  -0.1666667   0.0000000), wk =   0.0138889
        k(   68) = (  -0.2500000   0.5000000   0.0000000), wk =   0.0138889
        k(   69) = (   0.5000000  -0.2500000   0.0000000), wk =   0.0138889
        k(   70) = (  -0.2500000   0.5833333   0.0000000), wk =   0.0138889
        k(   71) = (  -0.3333333   0.5833333   0.0000000), wk =   0.0138889
        k(   72) = (   0.5833333  -0.2500000   0.0000000), wk =   0.0138889
        k(   73) = (  -0.3333333  -0.2500000   0.0000000), wk =   0.0138889
        k(   74) = (   0.5833333  -0.3333333   0.0000000), wk =   0.0138889
        k(   75) = (   0.0000000   0.0000000   0.0000000), wk =   0.0069444
        k(   76) = (   0.0000000   0.0833333   0.0000000), wk =   0.0138889
        k(   77) = (   0.0000000   0.1666667   0.0000000), wk =   0.0138889
        k(   78) = (   0.0000000   0.2500000   0.0000000), wk =   0.0138889
        k(   79) = (   0.0000000   0.3333333   0.0000000), wk =   0.0138889
        k(   80) = (   0.0000000   0.4166667   0.0000000), wk =   0.0138889
        k(   81) = (   0.0000000  -0.5000000   0.0000000), wk =   0.0069444
        k(   82) = (   0.0833333   0.0833333   0.0000000), wk =   0.0138889
        k(   83) = (   0.0833333   0.1666667   0.0000000), wk =   0.0138889
        k(   84) = (   0.0833333   0.2500000   0.0000000), wk =   0.0138889
        k(   85) = (   0.0833333   0.3333333   0.0000000), wk =   0.0138889
        k(   86) = (   0.0833333   0.4166667   0.0000000), wk =   0.0138889
        k(   87) = (   0.1666667   0.1666667   0.0000000), wk =   0.0138889
        k(   88) = (   0.1666667   0.2500000   0.0000000), wk =   0.0138889
        k(   89) = (   0.1666667   0.3333333   0.0000000), wk =   0.0138889
        k(   90) = (   0.1666667   0.4166667   0.0000000), wk =   0.0138889
        k(   91) = (   0.2500000   0.2500000   0.0000000), wk =   0.0138889
        k(   92) = (   0.2500000   0.3333333   0.0000000), wk =   0.0138889
        k(   93) = (   0.3333333   0.3333333   0.0000000), wk =   0.0138889
        k(   94) = (  -0.0833333   0.0833333   0.0000000), wk =   0.0138889
        k(   95) = (   0.0833333   0.0000000   0.0000000), wk =   0.0138889
        k(   96) = (  -0.1666667   0.1666667   0.0000000), wk =   0.0138889
        k(   97) = (   0.1666667   0.0000000   0.0000000), wk =   0.0138889
        k(   98) = (  -0.2500000   0.2500000   0.0000000), wk =   0.0138889
        k(   99) = (   0.2500000   0.0000000   0.0000000), wk =   0.0138889
        k(  100) = (  -0.3333333   0.3333333   0.0000000), wk =   0.0138889
        k(  101) = (   0.3333333   0.0000000   0.0000000), wk =   0.0138889
        k(  102) = (  -0.4166667   0.4166667   0.0000000), wk =   0.0138889
        k(  103) = (   0.4166667   0.0000000   0.0000000), wk =   0.0138889
        k(  104) = (   0.5000000  -0.5000000   0.0000000), wk =   0.0069444
        k(  105) = (  -0.5000000   0.0000000   0.0000000), wk =   0.0069444
        k(  106) = (  -0.0833333   0.1666667   0.0000000), wk =   0.0138889
        k(  107) = (   0.1666667  -0.0833333   0.0000000), wk =   0.0138889
        k(  108) = (  -0.0833333   0.2500000   0.0000000), wk =   0.0138889
        k(  109) = (  -0.1666667   0.2500000   0.0000000), wk =   0.0138889
        k(  110) = (   0.2500000  -0.0833333   0.0000000), wk =   0.0138889
        k(  111) = (  -0.1666667  -0.0833333   0.0000000), wk =   0.0138889
        k(  112) = (   0.2500000  -0.1666667   0.0000000), wk =   0.0138889
        k(  113) = (  -0.0833333   0.3333333   0.0000000), wk =   0.0138889
        k(  114) = (  -0.2500000   0.3333333   0.0000000), wk =   0.0138889
        k(  115) = (   0.3333333  -0.0833333   0.0000000), wk =   0.0138889
        k(  116) = (  -0.2500000  -0.0833333   0.0000000), wk =   0.0138889
        k(  117) = (   0.3333333  -0.2500000   0.0000000), wk =   0.0138889
        k(  118) = (  -0.0833333   0.4166667   0.0000000), wk =   0.0138889
        k(  119) = (  -0.3333333   0.4166667   0.0000000), wk =   0.0138889
        k(  120) = (   0.4166667  -0.0833333   0.0000000), wk =   0.0138889
        k(  121) = (  -0.3333333  -0.0833333   0.0000000), wk =   0.0138889
        k(  122) = (   0.4166667  -0.3333333   0.0000000), wk =   0.0138889
        k(  123) = (  -0.0833333   0.5000000   0.0000000), wk =   0.0138889
        k(  124) = (  -0.4166667   0.5000000   0.0000000), wk =   0.0138889
        k(  125) = (   0.5000000  -0.0833333   0.0000000), wk =   0.0138889
        k(  126) = (  -0.4166667  -0.0833333   0.0000000), wk =   0.0138889
        k(  127) = (   0.5000000  -0.4166667   0.0000000), wk =   0.0138889
        k(  128) = (  -0.1666667   0.3333333   0.0000000), wk =   0.0138889
        k(  129) = (   0.3333333  -0.1666667   0.0000000), wk =   0.0138889
        k(  130) = (  -0.1666667   0.4166667   0.0000000), wk =   0.0138889
        k(  131) = (  -0.2500000   0.4166667   0.0000000), wk =   0.0138889
        k(  132) = (   0.4166667  -0.1666667   0.0000000), wk =   0.0138889
        k(  133) = (  -0.2500000  -0.1666667   0.0000000), wk =   0.0138889
        k(  134) = (   0.4166667  -0.2500000   0.0000000), wk =   0.0138889
        k(  135) = (  -0.1666667   0.5000000   0.0000000), wk =   0.0138889
        k(  136) = (  -0.3333333   0.5000000   0.0000000), wk =   0.0138889
        k(  137) = (   0.5000000  -0.1666667   0.0000000), wk =   0.0138889
        k(  138) = (  -0.3333333  -0.1666667   0.0000000), wk =   0.0138889
        k(  139) = (   0.5000000  -0.3333333   0.0000000), wk =   0.0138889
        k(  140) = (  -0.4166667   0.5833333   0.0000000), wk =   0.0138889
        k(  141) = (   0.5833333  -0.1666667   0.0000000), wk =   0.0138889
        k(  142) = (  -0.2500000   0.5000000   0.0000000), wk =   0.0138889
        k(  143) = (   0.5000000  -0.2500000   0.0000000), wk =   0.0138889
        k(  144) = (  -0.2500000   0.5833333   0.0000000), wk =   0.0138889
        k(  145) = (  -0.3333333   0.5833333   0.0000000), wk =   0.0138889
        k(  146) = (   0.5833333  -0.2500000   0.0000000), wk =   0.0138889
        k(  147) = (  -0.3333333  -0.2500000   0.0000000), wk =   0.0138889
        k(  148) = (   0.5833333  -0.3333333   0.0000000), wk =   0.0138889

     Dense  grid:    96043 G-vectors     FFT dimensions: (  30,  30, 243)

     Smooth grid:    24369 G-vectors     FFT dimensions: (  20,  20, 160)

     Largest allocated arrays     est. size (Mb)     dimensions
        Kohn-Sham Wavefunctions         0.75 Mb     (    3054,   16)
        NL pseudopotentials             1.49 Mb     (    3054,   32)
        Each V/rho on FFT grid          6.67 Mb     (  218700,   2)
        Each G-vector array             0.73 Mb     (   96043)
        G-vector shells                 0.04 Mb     (    4763)
     Largest temporary arrays     est. size (Mb)     dimensions
        Auxiliary wavefunctions         2.98 Mb     (    3054,   64)
        Each subspace H/S matrix        0.06 Mb     (      64,   64)
        Each <psi_i|beta_j> matrix      0.01 Mb     (      32,   16)
        Arrays for rho mixing          26.70 Mb     (  218700,    8)

     Initial potential from superposition of free atoms

     starting charge   15.99979, renormalised to   16.00000

     negative rho (up, down):  2.730E-06 8.190E-06
     Starting wfc are   16 randomized atomic wfcs

     total cpu time spent up to now is        9.0 secs

     per-process dynamical memory:   163.4 Mb

     Self-consistent Calculation

     iteration #  1     ecut=    40.00 Ry     beta=0.30
     Davidson diagonalization with overlap
     ethr =  1.00E-02,  avg # of iterations =  6.0

     negative rho (up, down):  1.546E-06 5.039E-06

     Magnetic moment per site:
     atom:    1    charge:    1.6478    magn:   -0.5759    constr:    0.0000
     atom:    2    charge:    1.6478    magn:   -0.5759    constr:    0.0000
     atom:    3    charge:    1.6477    magn:   -0.5759    constr:    0.0000
     atom:    4    charge:    1.6477    magn:   -0.5759    constr:    0.0000

     total cpu time spent up to now is       44.7 secs

 ------ SPIN UP ------------


          k = 0.0000 0.0000 0.0000     band energies (ev):

   -21.7718 -21.6319  -9.5158  -8.5796  -5.8688  -5.8658  -5.8593  -5.8531
     3.3215   3.8379   4.6908   5.8279   5.8477   5.8619   5.8786   5.8907

     occupation numbers 
     1.0000   1.0000   1.0000   1.0000   1.0000   1.0000   1.0000   1.0000
     0.0000   0.0000   0.0000   0.0000   0.0000   0.0000   0.0000   0.0000

          k = 0.0000 0.0962 0.0000     band energies (ev):

   -21.6113 -21.4729  -9.3208  -8.3911  -6.4735  -6.4610  -6.1863  -6.1694
     3.5373   4.0595   5.0228   5.9457   5.9550   6.1020   6.5123   6.5548

     occupation numbers 
     1.0000   1.0000   1.0000   1.0000   1.0000   1.0000   1.0000   1.0000
     0.0000   0.0000   0.0000   0.0000   0.0000   0.0000   0.0000   0.0000

          k = 0.0000 0.1925 0.0000     band energies (ev):

   -21.1318 -20.9975  -8.7427  -8.0195  -7.9932  -7.8313  -6.9375  -6.9184
     4.1859   4.7209   5.8736   5.9633   6.1196   6.7702   7.2441   7.3886

     occupation numbers 
     1.0000   1.0000   1.0000   1.0000   1.0000   1.0000   1.0000   1.0000
     0.0000   0.0000   0.0000   0.0000   0.0000   0.0000   0.0000   0.0000

          k = 0.0000 0.2887 0.0000     band energies (ev):

   -20.3393 -20.2117 -10.0233  -9.9797  -7.8003  -7.7806  -7.7596  -6.9228
     5.2023   5.2568   5.4499   5.6917   5.9039   5.9407   6.8109   7.8480

     occupation numbers 
     1.0000   1.0000   1.0000   1.0000   1.0000   1.0000   1.0000   1.0000
     0.0000   0.0000   0.0000   0.0000   0.0000   0.0000   0.0000   0.0000

          k = 0.0000 0.3849 0.0000     band energies (ev):

   -19.2466 -19.1280 -12.1440 -12.0839  -8.4890  -8.4661  -6.5443  -5.7191
     2.9440   3.3820   5.4807   5.5975   6.8099   7.3789   8.4792   9.3964

     occupation numbers 
     1.0000   1.0000   1.0000   1.0000   1.0000   1.0000   1.0000   1.0000
     0.0000   0.0000   0.0000   0.0000   0.0000   0.0000   0.0000   0.0000

          k = 0.0000 0.4811 0.0000     band energies (ev):

   -17.8866 -17.7780 -14.1748 -14.0999  -8.9474  -8.9237  -5.1390  -4.3901
     0.8315   1.4364   5.2750   5.4294   8.6775   9.3196  10.4599  11.1889

     occupation numbers 
     1.0000   1.0000   1.0000   1.0000   1.0000   1.0000   1.0000   1.0000
     0.0000   0.0000   0.0000   0.0000   0.0000   0.0000   0.0000   0.0000

          k = 0.0000-0.5774 0.0000     band energies (ev):

   -16.6691 -16.5651 -15.6238 -15.5425  -9.1046  -9.0809  -4.3093  -3.6254
    -0.2483   0.4526   5.2018   5.3634  10.7856  10.8927  11.7004  12.0090

     occupation numbers 
     1.0000   1.0000   1.0000   1.0000   1.0000   1.0000   1.0000   1.0000
     0.0000   0.0000   0.0000   0.0000   0.0000   0.0000   0.0000   0.0000

          k = 0.0833 0.1443 0.0000     band energies (ev):

   -21.2913 -21.1557  -8.9338  -8.0174  -7.4438  -7.4380  -6.8141  -6.8069
     3.9692   4.5005   5.3671   6.2495   6.2596   6.5300   6.6616   7.3954

     occupation numbers 
     1.0000   1.0000   1.0000   1.0000   1.0000   1.0000   1.0000   1.0000
     0.0000   0.0000   0.0000   0.0000   0.0000   0.0000   0.0000   0.0000

          k = 0.0833 0.2406 0.0000     band energies (ev):

   -20.6553 -20.5251  -9.0758  -9.0487  -8.1721  -7.7641  -7.7448  -7.2820
     4.8308   5.3784   6.0765   6.1741   6.4221   6.4937   6.6665   7.4468

     occupation numbers 
     1.0000   1.0000   1.0000   1.0000   1.0000   1.0000   1.0000   1.0000
     0.0000   0.0000   0.0000   0.0000   0.0000   0.0000   0.0000   0.0000

          k = 0.0833 0.3368 0.0000     band energies (ev):

   -19.7125 -19.5903 -11.0643 -11.0162  -8.6185  -8.5926  -7.0664  -6.2191
     3.9708   4.2492   6.0516   6.2578   6.4901   6.7340   7.8261   8.7732

     occupation numbers 
     1.0000   1.0000   1.0000   1.0000   1.0000   1.0000   1.0000   1.0000
     0.0000   0.0000   0.0000   0.0000   0.0000   0.0000   0.0000   0.0000

          k = 0.0833 0.4330 0.0000     band energies (ev):

   -18.4829 -18.3704 -13.1119 -13.0464  -9.2341  -9.2050  -5.7015  -4.9178
     1.7823   2.2431   6.0346   6.1831   7.8516   8.4729   9.4067  10.2128

     occupation numbers 
     1.0000   1.0000   1.0000   1.0000   1.0000   1.0000   1.0000   1.0000
     0.0000   0.0000   0.0000   0.0000   0.0000   0.0000   0.0000   0.0000

          k = 0.0833 0.5292 0.0000     band energies (ev):

   -17.0461 -16.9431 -14.9882 -14.9096  -9.5534  -9.5231  -4.4121  -3.7100
     0.0359   0.6440   5.8885   6.0629   9.8716  10.5447  11.3862  11.9966

     occupation numbers 
     1.0000   1.0000   1.0000   1.0000   1.0000   1.0000   1.0000   1.0000
     0.0000   0.0000   0.0000   0.0000   0.0000   0.0000   0.0000   0.0000

          k = 0.1667 0.2887 0.0000     band energies (ev):

   -19.8689 -19.7456 -10.3485 -10.3380  -9.0356  -9.0286  -7.2410  -6.3909
     4.4624   4.5507   5.9080   6.4812   7.3670   7.6677   7.7277   8.4769

     occupation numbers 
     1.0000   1.0000   1.0000   1.0000   1.0000   1.0000   1.0000   1.0000
     0.0000   0.0000   0.0000   0.0000   0.0000   0.0000   0.0000   0.0000

          k = 0.1667 0.3849 0.0000     band energies (ev):

   -18.7874 -18.6732 -12.0176 -11.9756 -10.0579 -10.0281  -5.9993  -5.2042
     2.5503   2.7406   7.3926   7.7981   8.0741   8.0951  10.3687  10.5869

     occupation numbers 
     1.0000   1.0000   1.0000   1.0000   1.0000   1.0000   1.0000   1.0000
     0.0000   0.0000   0.0000   0.0000   0.0000   0.0000   0.0000   0.0000

          k = 0.1667 0.4811 0.0000     band energies (ev):

   -17.4481 -17.3443 -13.8620 -13.7963 -10.6226 -10.5824  -4.5902  -3.8671
     0.6446   1.0009   7.6757   7.8787   9.3302   9.8061  11.8601  12.5095

     occupation numbers 
     1.0000   1.0000   1.0000   1.0000   1.0000   1.0000   1.0000   1.0000
     0.0000   0.0000   0.0000   0.0000   0.0000   0.0000   0.0000   0.0000

          k = 0.1667 0.5774 0.0000     band energies (ev):

   -16.2602 -16.1606 -15.2394 -15.1658 -10.8038 -10.7614  -3.7179  -3.0457
    -0.4107   0.0369   7.5967   7.8209  10.6436  11.0808  11.1075  11.5679

     occupation numbers 
     1.0000   1.0000   1.0000   1.0000   1.0000   1.0000   1.0000   0.0000
     0.0000   0.0000   0.0000   0.0000   0.0000   0.0000   0.0000   0.0000

          k = 0.2500 0.4330 0.0000     band energies (ev):

   -17.5908 -17.4874 -13.0113 -12.9965 -11.4502 -11.4397  -4.6585  -3.9539
     1.0158   1.1323   9.0138   9.4687   9.9775  10.0186  10.3544  10.4320

     occupation numbers 
     1.0000   1.0000   1.0000   1.0000   1.0000   1.0000   1.0000   1.0000
     0.0000   0.0000   0.0000   0.0000   0.0000   0.0000   0.0000   0.0000

          k = 0.2500 0.5292 0.0000     band energies (ev):

   -16.2124 -16.1192 -14.3905 -14.3387 -12.1468 -12.1078  -3.2991  -2.6503
    -0.4812  -0.3066   9.6102   9.7354  10.3167  10.6044  10.7966  11.7160

     occupation numbers 
     1.0000   1.0000   1.0000   1.0000   1.0000   1.0000   0.0000   0.0000
     0.0000   0.0000   0.0000   0.0000   0.0000   0.0000   0.0000   0.0000

          k = 0.3333 0.5774 0.0000     band energies (ev):

   -15.0397 -15.0135 -14.9796 -14.9523 -12.9779 -12.9550  -1.9741  -1.7931
    -1.5465  -1.3406   9.3523  10.0851  11.0431  11.4433  11.6946  11.8841

     occupation numbers 
     1.0000   1.0000   1.0000   1.0000   1.0000   1.0000   0.0000   0.0000
     0.0000   0.0000   0.0000   0.0000   0.0000   0.0000   0.0000   0.0000

          k =-0.0833 0.0481 0.0000     band energies (ev):

   -21.6113 -21.4729  -9.3207  -8.3913  -6.4746  -6.4579  -6.1801  -6.1778
     3.5373   4.0585   4.9917   5.9322   5.9647   6.0782   6.5329   6.5357

     occupation numbers 
     1.0000   1.0000   1.0000   1.0000   1.0000   1.0000   1.0000   1.0000
     0.0000   0.0000   0.0000   0.0000   0.0000   0.0000   0.0000   0.0000

          k = 0.0833 0.0481 0.0000     band energies (ev):

   -21.6113 -21.4729  -9.3205  -8.3914  -6.4746  -6.4579  -6.1801  -6.1778
     3.5394   4.0592   5.1400   5.9353   5.9780   6.0990   6.5334   6.5357

     occupation numbers 
     1.0000   1.0000   1.0000   1.0000   1.0000   1.0000   1.0000   1.0000
     0.0000   0.0000   0.0000   0.0000   0.0000   0.0000   0.0000   0.0000

          k =-0.1667 0.0962 0.0000     band energies (ev):

   -21.1317 -20.9975  -8.7414  -8.0208  -7.9902  -7.8333  -6.9308  -6.9270
     4.1835   4.7209   5.7396   5.9839   6.0388   6.7603   7.2433   7.3804

     occupation numbers 
     1.0000   1.0000   1.0000   1.0000   1.0000   1.0000   1.0000   1.0000
     0.0000   0.0000   0.0000   0.0000   0.0000   0.0000   0.0000   0.0000

          k = 0.1667 0.0962 0.0000     band energies (ev):

   -21.1317 -20.9975  -8.7412  -8.0208  -7.9902  -7.8333  -6.9308  -6.9270
     4.1855   4.7196   5.7847   5.9838   6.0621   6.7698   7.2314   7.2667

     occupation numbers 
     1.0000   1.0000   1.0000   1.0000   1.0000   1.0000   1.0000   1.0000
     0.0000   0.0000   0.0000   0.0000   0.0000   0.0000   0.0000   0.0000

          k =-0.2500 0.1443 0.0000     band energies (ev):

   -20.3390 -20.2119 -10.0241  -9.9777  -7.7968  -7.7729  -7.7679  -6.9281
     5.1791   5.2295   5.5081   5.7428   5.8634   5.9260   6.7547   7.8463

     occupation numbers 
     1.0000   1.0000   1.0000   1.0000   1.0000   1.0000   1.0000   1.0000
     0.0000   0.0000   0.0000   0.0000   0.0000   0.0000   0.0000   0.0000

          k = 0.2500 0.1443 0.0000     band energies (ev):

   -20.3390 -20.2119 -10.0241  -9.9777  -7.7969  -7.7728  -7.7679  -6.9282
     5.1791   5.2265   5.5079   5.7457   5.8637   5.9348   6.7686   7.8635

     occupation numbers 
     1.0000   1.0000   1.0000   1.0000   1.0000   1.0000   1.0000   1.0000
     0.0000   0.0000   0.0000   0.0000   0.0000   0.0000   0.0000   0.0000

          k =-0.3333 0.1925 0.0000     band energies (ev):

   -19.2459 -19.1285 -12.1447 -12.0825  -8.4808  -8.4756  -6.5293  -5.7378
     2.9547   3.3835   5.5174   5.5565   6.8075   7.4200   8.2890   9.2807

     occupation numbers 
     1.0000   1.0000   1.0000   1.0000   1.0000   1.0000   1.0000   1.0000
     0.0000   0.0000   0.0000   0.0000   0.0000   0.0000   0.0000   0.0000

          k = 0.3333 0.1925 0.0000     band energies (ev):

   -19.2459 -19.1286 -12.1446 -12.0825  -8.4807  -8.4758  -6.5293  -5.7378
     2.9546   3.3835   5.5197   5.5567   6.8075   7.3797   8.3613   9.3692

     occupation numbers 
     1.0000   1.0000   1.0000   1.0000   1.0000   1.0000   1.0000   1.0000
     0.0000   0.0000   0.0000   0.0000   0.0000   0.0000   0.0000   0.0000

          k =-0.4167 0.2406 0.0000     band energies (ev):

   -17.8839 -17.7806 -14.1748 -14.0996  -8.9387  -8.9334  -5.0784  -4.4690
     0.9283   1.3653   5.3300   5.3677   8.6794   9.3239  10.4097  11.1577

     occupation numbers 
     1.0000   1.0000   1.0000   1.0000   1.0000   1.0000   1.0000   1.0000
     0.0000   0.0000   0.0000   0.0000   0.0000   0.0000   0.0000   0.0000

          k = 0.4167 0.2406 0.0000     band energies (ev):

   -17.8838 -17.7806 -14.1747 -14.0995  -8.9387  -8.9334  -5.0784  -4.4690
     0.9284   1.3655   5.3334   5.3677   8.6775   9.3145  10.4134  11.2148

     occupation numbers 
     1.0000   1.0000   1.0000   1.0000   1.0000   1.0000   1.0000   1.0000
     0.0000   0.0000   0.0000   0.0000   0.0000   0.0000   0.0000   0.0000

          k = 0.5000-0.2887 0.0000     band energies (ev):

   -16.6296 -16.6079 -15.5899 -15.5720  -9.0961  -9.0907  -4.0681  -3.9266
     0.0502   0.2211   5.2634   5.3029  10.8360  10.8662  11.5516  12.4726

     occupation numbers 
     1.0000   1.0000   1.0000   1.0000   1.0000   1.0000   1.0000   1.0000
     0.0000   0.0000   0.0000   0.0000   0.0000   0.0000   0.0000   0.0000

          k =-0.5000-0.2887 0.0000     band energies (ev):

   -16.6296 -16.6079 -15.5898 -15.5721  -9.0961  -9.0907  -4.0681  -3.9266
     0.0504   0.2211   5.2639   5.3026  10.8215  10.8941  11.5633  12.6424

     occupation numbers 
     1.0000   1.0000   1.0000   1.0000   1.0000   1.0000   1.0000   1.0000
     0.0000   0.0000   0.0000   0.0000   0.0000   0.0000   0.0000   0.0000

          k =-0.0833 0.1443 0.0000     band energies (ev):

   -21.2913 -21.1557  -8.9340  -8.0174  -7.4438  -7.4380  -6.8141  -6.8069
     3.9695   4.5013   5.3639   6.2489   6.2599   6.5581   6.6635   7.3954

     occupation numbers 
     1.0000   1.0000   1.0000   1.0000   1.0000   1.0000   1.0000   1.0000
     0.0000   0.0000   0.0000   0.0000   0.0000   0.0000   0.0000   0.0000

          k = 0.1667-0.0000 0.0000     band energies (ev):

   -21.2912 -21.1557  -8.9329  -8.0183  -7.4546  -7.4252  -6.8154  -6.8080
     3.9711   4.5273   5.4346   6.2428   6.2785   6.6671   7.3958   7.4488

     occupation numbers 
     1.0000   1.0000   1.0000   1.0000   1.0000   1.0000   1.0000   1.0000
     0.0000   0.0000   0.0000   0.0000   0.0000   0.0000   0.0000   0.0000

          k =-0.0833 0.2406 0.0000     band energies (ev):

   -20.6553 -20.5251  -9.0758  -9.0487  -8.1722  -7.7641  -7.7448  -7.2821
     4.8367   5.3795   6.0767   6.1741   6.4908   6.4977   6.9773   7.4104

     occupation numbers 
     1.0000   1.0000   1.0000   1.0000   1.0000   1.0000   1.0000   1.0000
     0.0000   0.0000   0.0000   0.0000   0.0000   0.0000   0.0000   0.0000

          k =-0.1667 0.1925 0.0000     band energies (ev):

   -20.6552 -20.5252  -9.0755  -9.0480  -8.1710  -7.7598  -7.7501  -7.2837
     4.8319   5.3734   6.0682   6.1963   6.3857   6.5105   6.6162   7.4402

     occupation numbers 
     1.0000   1.0000   1.0000   1.0000   1.0000   1.0000   1.0000   1.0000
     0.0000   0.0000   0.0000   0.0000   0.0000   0.0000   0.0000   0.0000

          k = 0.2500 0.0481 0.0000     band energies (ev):

   -20.6551 -20.5253  -9.0818  -9.0408  -8.1696  -7.7633  -7.7476  -7.2855
     4.8297   5.3760   5.9929   6.2315   6.3128   6.4743   6.5535   7.4610

     occupation numbers 
     1.0000   1.0000   1.0000   1.0000   1.0000   1.0000   1.0000   1.0000
     0.0000   0.0000   0.0000   0.0000   0.0000   0.0000   0.0000   0.0000

          k =-0.1667-0.1925 0.0000     band energies (ev):

   -20.6552 -20.5252  -9.0755  -9.0480  -8.1709  -7.7598  -7.7501  -7.2837
     4.8293   5.3744   6.0687   6.1939   6.3858   6.5144   6.5940   7.4390

     occupation numbers 
     1.0000   1.0000   1.0000   1.0000   1.0000   1.0000   1.0000   1.0000
     0.0000   0.0000   0.0000   0.0000   0.0000   0.0000   0.0000   0.0000

          k = 0.2500-0.0481 0.0000     band energies (ev):

   -20.6551 -20.5253  -9.0818  -9.0408  -8.1693  -7.7633  -7.7476  -7.2855
     4.8314   5.3738   5.9929   6.2954   6.3950   6.4815   6.6454   7.4442

     occupation numbers 
     1.0000   1.0000   1.0000   1.0000   1.0000   1.0000   1.0000   1.0000
     0.0000   0.0000   0.0000   0.0000   0.0000   0.0000   0.0000   0.0000

          k =-0.0833 0.3368 0.0000     band energies (ev):

   -19.7126 -19.5903 -11.0643 -11.0162  -8.6185  -8.5925  -7.0665  -6.2191
     3.9710   4.2491   6.0523   6.2577   6.4895   6.7329   7.6917   8.7236

     occupation numbers 
     1.0000   1.0000   1.0000   1.0000   1.0000   1.0000   1.0000   1.0000
     0.0000   0.0000   0.0000   0.0000   0.0000   0.0000   0.0000   0.0000

          k =-0.2500 0.2406 0.0000     band energies (ev):

   -19.7122 -19.5905 -11.0644 -11.0153  -8.6152  -8.5971  -7.0600  -6.2270
     3.9698   4.2569   6.0334   6.3342   6.4359   6.7347   7.7162   8.7136

     occupation numbers 
     1.0000   1.0000   1.0000   1.0000   1.0000   1.0000   1.0000   1.0000
     0.0000   0.0000   0.0000   0.0000   0.0000   0.0000   0.0000   0.0000

          k = 0.3333 0.0962 0.0000     band energies (ev):

   -19.7120 -19.5906 -11.0674 -11.0121  -8.6163  -8.5963  -7.0578  -6.2295
     3.9040   4.3316   6.0391   6.2953   6.4553   6.7358   7.7135   8.7206

     occupation numbers 
     1.0000   1.0000   1.0000   1.0000   1.0000   1.0000   1.0000   1.0000
     0.0000   0.0000   0.0000   0.0000   0.0000   0.0000   0.0000   0.0000

          k =-0.2500-0.2406 0.0000     band energies (ev):

   -19.7122 -19.5905 -11.0644 -11.0153  -8.6152  -8.5971  -7.0600  -6.2270
     3.9702   4.2569   6.0341   6.3345   6.4361   6.7482   7.6449   8.6766

     occupation numbers 
     1.0000   1.0000   1.0000   1.0000   1.0000   1.0000   1.0000   1.0000
     0.0000   0.0000   0.0000   0.0000   0.0000   0.0000   0.0000   0.0000

          k = 0.3333-0.0962 0.0000     band energies (ev):

   -19.7120 -19.5906 -11.0674 -11.0121  -8.6163  -8.5963  -7.0578  -6.2295
     3.9042   4.3314   6.0396   6.2954   6.4558   6.7340   7.9024   8.7549

     occupation numbers 
     1.0000   1.0000   1.0000   1.0000   1.0000   1.0000   1.0000   1.0000
     0.0000   0.0000   0.0000   0.0000   0.0000   0.0000   0.0000   0.0000

          k =-0.0833 0.4330 0.0000     band energies (ev):

   -18.4829 -18.3704 -13.1119 -13.0464  -9.2341  -9.2050  -5.7015  -4.9178
     1.7822   2.2431   6.0346   6.1830   7.8509   8.4670   9.4205  10.2040

     occupation numbers 
     1.0000   1.0000   1.0000   1.0000   1.0000   1.0000   1.0000   1.0000
     0.0000   0.0000   0.0000   0.0000   0.0000   0.0000   0.0000   0.0000

          k =-0.3333 0.2887 0.0000     band energies (ev):

   -18.4817 -18.3714 -13.1120 -13.0457  -9.2309  -9.2094  -5.6750  -4.9518
     1.8273   2.2123   6.0797   6.1385   7.8541   8.4703   9.4087  10.2094

     occupation numbers 
     1.0000   1.0000   1.0000   1.0000   1.0000   1.0000   1.0000   1.0000
     0.0000   0.0000   0.0000   0.0000   0.0000   0.0000   0.0000   0.0000

          k = 0.4167 0.1443 0.0000     band energies (ev):

   -18.4815 -18.3716 -13.1136 -13.0440  -9.2314  -9.2091  -5.6723  -4.9544
     1.7755   2.2690   6.0804   6.1321   7.8525   8.4427   9.5353  10.4505

     occupation numbers 
     1.0000   1.0000   1.0000   1.0000   1.0000   1.0000   1.0000   1.0000
     0.0000   0.0000   0.0000   0.0000   0.0000   0.0000   0.0000   0.0000

          k =-0.3333-0.2887 0.0000     band energies (ev):

   -18.4817 -18.3714 -13.1120 -13.0457  -9.2309  -9.2095  -5.6750  -4.9518
     1.8275   2.2126   6.0796   6.1385   7.8527   8.4607   9.4953  10.2890

     occupation numbers 
     1.0000   1.0000   1.0000   1.0000   1.0000   1.0000   1.0000   1.0000
     0.0000   0.0000   0.0000   0.0000   0.0000   0.0000   0.0000   0.0000

          k = 0.4167-0.1443 0.0000     band energies (ev):

   -18.4815 -18.3716 -13.1136 -13.0440  -9.2314  -9.2091  -5.6723  -4.9544
     1.7758   2.2686   6.0806   6.1320   7.8513   8.4571   9.4561  10.2477

     occupation numbers 
     1.0000   1.0000   1.0000   1.0000   1.0000   1.0000   1.0000   1.0000
     0.0000   0.0000   0.0000   0.0000   0.0000   0.0000   0.0000   0.0000

          k =-0.0833 0.5292 0.0000     band energies (ev):

   -17.0461 -16.9431 -14.9882 -14.9096  -9.5534  -9.5231  -4.4121  -3.7100
     0.0357   0.6441   5.8886   6.0629   9.8821  10.5365  11.3354  11.9357

     occupation numbers 
     1.0000   1.0000   1.0000   1.0000   1.0000   1.0000   1.0000   1.0000
     0.0000   0.0000   0.0000   0.0000   0.0000   0.0000   0.0000   0.0000

          k =-0.4167 0.3368 0.0000     band energies (ev):

   -17.0385 -16.9508 -14.9844 -14.9126  -9.5502  -9.5273  -4.2814  -3.8818
     0.2261   0.5033   5.9452   6.0041   9.8792  10.5163  11.3665  11.9231

     occupation numbers 
     1.0000   1.0000   1.0000   1.0000   1.0000   1.0000   1.0000   1.0000
     0.0000   0.0000   0.0000   0.0000   0.0000   0.0000   0.0000   0.0000

          k = 0.5000 0.1925 0.0000     band energies (ev):

   -17.0382 -16.9510 -14.9856 -14.9115  -9.5503  -9.5272  -4.2800  -3.8821
     0.1837   0.5463   5.9443   6.0033   9.8822  10.5168  11.4597  11.9383

     occupation numbers 
     1.0000   1.0000   1.0000   1.0000   1.0000   1.0000   1.0000   1.0000
     0.0000   0.0000   0.0000   0.0000   0.0000   0.0000   0.0000   0.0000

          k =-0.4167-0.3368 0.0000     band energies (ev):

   -17.0384 -16.9508 -14.9844 -14.9126  -9.5502  -9.5273  -4.2814  -3.8818
     0.2261   0.5035   5.9452   6.0042   9.8848  10.5490  11.3185  11.9384

     occupation numbers 
     1.0000   1.0000   1.0000   1.0000   1.0000   1.0000   1.0000   1.0000
     0.0000   0.0000   0.0000   0.0000   0.0000   0.0000   0.0000   0.0000

          k = 0.5000-0.1925 0.0000     band energies (ev):

   -17.0382 -16.9510 -14.9856 -14.9114  -9.5503  -9.5272  -4.2800  -3.8821
     0.1835   0.5463   5.9444   6.0033   9.8749  10.4900  11.4131  11.9159

     occupation numbers 
     1.0000   1.0000   1.0000   1.0000   1.0000   1.0000   1.0000   1.0000
     0.0000   0.0000   0.0000   0.0000   0.0000   0.0000   0.0000   0.0000

          k =-0.1667 0.2887 0.0000     band energies (ev):

   -19.8689 -19.7455 -10.3485 -10.3380  -9.0355  -9.0287  -7.2411  -6.3909
     4.4622   4.5507   5.9070   6.4963   7.3558   7.6680   7.7232   8.4603

     occupation numbers 
     1.0000   1.0000   1.0000   1.0000   1.0000   1.0000   1.0000   1.0000
     0.0000   0.0000   0.0000   0.0000   0.0000   0.0000   0.0000   0.0000

          k = 0.3333-0.0000 0.0000     band energies (ev):

   -19.8686 -19.7458 -10.3675 -10.3174  -9.0478  -9.0183  -7.2364  -6.3964
     4.3050   4.7240   5.9048   6.4731   7.3579   7.6183   7.7516   8.4839

     occupation numbers 
     1.0000   1.0000   1.0000   1.0000   1.0000   1.0000   1.0000   1.0000
     0.0000   0.0000   0.0000   0.0000   0.0000   0.0000   0.0000   0.0000

          k =-0.1667 0.3849 0.0000     band energies (ev):

   -18.7874 -18.6732 -12.0176 -11.9756 -10.0579 -10.0281  -5.9993  -5.2041
     2.5498   2.7407   7.4053   7.8010   8.0836   8.0968  10.4066  10.6000

     occupation numbers 
     1.0000   1.0000   1.0000   1.0000   1.0000   1.0000   1.0000   1.0000
     0.0000   0.0000   0.0000   0.0000   0.0000   0.0000   0.0000   0.0000

          k =-0.2500 0.3368 0.0000     band energies (ev):

   -18.7872 -18.6735 -12.0175 -11.9752 -10.0565 -10.0304  -5.9919  -5.2137
     2.5502   2.7457   7.3629   7.9164   7.9705   8.1014   9.2802  10.4928

     occupation numbers 
     1.0000   1.0000   1.0000   1.0000   1.0000   1.0000   1.0000   1.0000
     0.0000   0.0000   0.0000   0.0000   0.0000   0.0000   0.0000   0.0000

          k = 0.4167 0.0481 0.0000     band energies (ev):

   -18.7867 -18.6739 -12.0271 -11.9650 -10.0627 -10.0250  -5.9848  -5.2213
     2.4058   2.9039   7.3712   7.8010   8.0409   8.0917   9.2878  10.5283

     occupation numbers 
     1.0000   1.0000   1.0000   1.0000   1.0000   1.0000   1.0000   1.0000
     0.0000   0.0000   0.0000   0.0000   0.0000   0.0000   0.0000   0.0000

          k =-0.2500-0.3368 0.0000     band energies (ev):

   -18.7872 -18.6735 -12.0175 -11.9752 -10.0566 -10.0305  -5.9920  -5.2137
     2.5494   2.7455   7.3604   7.9042   7.9675   8.0866   9.2523  10.4587

     occupation numbers 
     1.0000   1.0000   1.0000   1.0000   1.0000   1.0000   1.0000   1.0000
     0.0000   0.0000   0.0000   0.0000   0.0000   0.0000   0.0000   0.0000

          k = 0.4167-0.0481 0.0000     band energies (ev):

   -18.7867 -18.6739 -12.0271 -11.9651 -10.0627 -10.0251  -5.9849  -5.2213
     2.4053   2.9033   7.3634   7.8015   8.0424   8.0968   9.2748  10.5135

     occupation numbers 
     1.0000   1.0000   1.0000   1.0000   1.0000   1.0000   1.0000   1.0000
     0.0000   0.0000   0.0000   0.0000   0.0000   0.0000   0.0000   0.0000

          k =-0.1667 0.4811 0.0000     band energies (ev):

   -17.4480 -17.3443 -13.8619 -13.7963 -10.6225 -10.5824  -4.5902  -3.8670
     0.6443   1.0008   7.6755   7.8789   9.2985   9.8484  11.8526  12.5303

     occupation numbers 
     1.0000   1.0000   1.0000   1.0000   1.0000   1.0000   1.0000   1.0000
     0.0000   0.0000   0.0000   0.0000   0.0000   0.0000   0.0000   0.0000

          k =-0.3333 0.3849 0.0000     band energies (ev):

   -17.4460 -17.3462 -13.8614 -13.7963 -10.6217 -10.5843  -4.5428  -3.9301
     0.6973   0.9703   7.7140   7.8474   9.2735   9.8291  10.3839  11.8155

     occupation numbers 
     1.0000   1.0000   1.0000   1.0000   1.0000   1.0000   1.0000   1.0000
     0.0000   0.0000   0.0000   0.0000   0.0000   0.0000   0.0000   0.0000

          k = 0.5000 0.0962 0.0000     band energies (ev):

   -17.4454 -17.3468 -13.8659 -13.7919 -10.6235 -10.5827  -4.5354  -3.9361
     0.5786   1.0949   7.7112   7.8328   9.2821   9.7355  10.6452  11.8108

     occupation numbers 
     1.0000   1.0000   1.0000   1.0000   1.0000   1.0000   1.0000   1.0000
     0.0000   0.0000   0.0000   0.0000   0.0000   0.0000   0.0000   0.0000

          k =-0.3333-0.3849 0.0000     band energies (ev):

   -17.4460 -17.3462 -13.8614 -13.7963 -10.6217 -10.5843  -4.5428  -3.9301
     0.6973   0.9701   7.7140   7.8472   9.2758   9.8088  10.3866  11.8384

     occupation numbers 
     1.0000   1.0000   1.0000   1.0000   1.0000   1.0000   1.0000   1.0000
     0.0000   0.0000   0.0000   0.0000   0.0000   0.0000   0.0000   0.0000

          k = 0.5000-0.0962 0.0000     band energies (ev):

   -17.4454 -17.3467 -13.8659 -13.7919 -10.6235 -10.5827  -4.5354  -3.9361
     0.5786   1.0950   7.7114   7.8329   9.2733   9.7512  10.6786  11.8109

     occupation numbers 
     1.0000   1.0000   1.0000   1.0000   1.0000   1.0000   1.0000   1.0000
     0.0000   0.0000   0.0000   0.0000   0.0000   0.0000   0.0000   0.0000

          k =-0.4167 0.4330 0.0000     band energies (ev):

   -16.2224 -16.2016 -15.2096 -15.1918 -10.8035 -10.7626  -3.4825  -3.3439
    -0.2460  -0.0519   7.6406   7.7745  10.5814  10.9118  11.3902  11.5207

     occupation numbers 
     1.0000   1.0000   1.0000   1.0000   1.0000   1.0000   0.0000   0.0000
     0.0000   0.0000   0.0000   0.0000   0.0000   0.0000   0.0000   0.0000

          k = 0.5833 0.1443 0.0000     band energies (ev):

   -16.2224 -16.2016 -15.2096 -15.1918 -10.8035 -10.7626  -3.4825  -3.3439
    -0.2460  -0.0519   7.6405   7.7744  10.5808  10.9086  11.3895  11.5228

     occupation numbers 
     1.0000   1.0000   1.0000   1.0000   1.0000   1.0000   0.0000   0.0000
     0.0000   0.0000   0.0000   0.0000   0.0000   0.0000   0.0000   0.0000

          k =-0.2500 0.4330 0.0000     band energies (ev):

   -17.5908 -17.4875 -13.0113 -12.9966 -11.4502 -11.4397  -4.6585  -3.9539
     1.0157   1.1322   9.0239   9.4565   9.9739  10.0223  10.3508  10.3978

     occupation numbers 
     1.0000   1.0000   1.0000   1.0000   1.0000   1.0000   1.0000   1.0000
     0.0000   0.0000   0.0000   0.0000   0.0000   0.0000   0.0000   0.0000

          k = 0.5000 0.0000 0.0000     band energies (ev):

   -17.5894 -17.4885 -13.0382 -12.9682 -11.4703 -11.4212  -4.6368  -3.9779
     0.8050   1.3617   9.0077   9.2907   9.9590  10.2115  10.2221  10.4784

     occupation numbers 
     1.0000   1.0000   1.0000   1.0000   1.0000   1.0000   1.0000   1.0000
     0.0000   0.0000   0.0000   0.0000   0.0000   0.0000   0.0000   0.0000

          k =-0.2500 0.5292 0.0000     band energies (ev):

   -16.2124 -16.1192 -14.3905 -14.3387 -12.1468 -12.1078  -3.2991  -2.6503
    -0.4812  -0.3066   9.6116   9.7370  10.3118  10.6217  10.7917  11.7188

     occupation numbers 
     1.0000   1.0000   1.0000   1.0000   1.0000   1.0000   0.0000   0.0000
     0.0000   0.0000   0.0000   0.0000   0.0000   0.0000   0.0000   0.0000

          k =-0.3333 0.4811 0.0000     band energies (ev):

   -16.2071 -16.1248 -14.3881 -14.3404 -12.1480 -12.1073  -3.2156  -2.7688
    -0.4394  -0.3060   9.5952   9.9366  10.0610  10.4439  10.9729  11.6467

     occupation numbers 
     1.0000   1.0000   1.0000   1.0000   1.0000   1.0000   0.0000   0.0000
     0.0000   0.0000   0.0000   0.0000   0.0000   0.0000   0.0000   0.0000

          k = 0.5833 0.0481 0.0000     band energies (ev):

   -16.2053 -16.1262 -14.4018 -14.3265 -12.1535 -12.1023  -3.1978  -2.7768
    -0.6406  -0.1076   9.5370   9.9144  10.1001  10.5306  10.9973  11.6425

     occupation numbers 
     1.0000   1.0000   1.0000   1.0000   1.0000   1.0000   0.0000   0.0000
     0.0000   0.0000   0.0000   0.0000   0.0000   0.0000   0.0000   0.0000

          k =-0.3333-0.4811 0.0000     band energies (ev):

   -16.2070 -16.1248 -14.3881 -14.3404 -12.1480 -12.1073  -3.2156  -2.7688
    -0.4393  -0.3060   9.5953   9.9384  10.0612  10.4438  10.9719  11.6477

     occupation numbers 
     1.0000   1.0000   1.0000   1.0000   1.0000   1.0000   0.0000   0.0000
     0.0000   0.0000   0.0000   0.0000   0.0000   0.0000   0.0000   0.0000

          k = 0.5833-0.0481 0.0000     band energies (ev):

   -16.2054 -16.1262 -14.4018 -14.3264 -12.1535 -12.1023  -3.1979  -2.7768
    -0.6406  -0.1075   9.5341   9.9133  10.0980  10.5292  10.9997  11.6402

     occupation numbers 
     1.0000   1.0000   1.0000   1.0000   1.0000   1.0000   0.0000   0.0000
     0.0000   0.0000   0.0000   0.0000   0.0000   0.0000   0.0000   0.0000

 ------ SPIN DOWN ----------


          k = 0.0000 0.0000 0.0000     band energies (ev):

   -25.4338 -25.3182 -12.7040 -11.9188  -9.8722  -9.8700  -9.8646  -9.8591
     2.0849   2.0887   2.0976   2.1118   2.1212   3.1499   4.5377   5.4322

     occupation numbers 
     1.0000   1.0000   1.0000   1.0000   1.0000   1.0000   1.0000   1.0000
     0.0000   0.0000   0.0000   0.0000   0.0000   0.0000   0.0000   0.0000

          k = 0.0000 0.0962 0.0000     band energies (ev):

   -25.2759 -25.1615 -12.5127 -11.7341 -10.4560 -10.4458 -10.1780 -10.1640
     2.2076   2.2133   2.6964   2.7350   2.7688   3.3770   4.9530   4.9718

     occupation numbers 
     1.0000   1.0000   1.0000   1.0000   1.0000   1.0000   1.0000   1.0000
     0.0000   0.0000   0.0000   0.0000   0.0000   0.0000   0.0000   0.0000

          k = 0.0000 0.1925 0.0000     band energies (ev):

   -24.8044 -24.6934 -11.9605 -11.9414 -11.9317 -11.1862 -10.9060 -10.8901
     2.2512   2.2729   3.0131   3.5926   3.6512   4.0376   4.4710   4.5017

     occupation numbers 
     1.0000   1.0000   1.0000   1.0000   1.0000   1.0000   1.0000   1.0000
     0.0000   0.0000   0.0000   0.0000   0.0000   0.0000   0.0000   0.0000

          k = 0.0000 0.2887 0.0000     band energies (ev):

   -24.0254 -23.9201 -13.9031 -13.8676 -11.7287 -11.7111 -11.0301 -10.2980
     1.6399   1.8231   2.1413   2.1872   4.0260   5.1115   6.8809   6.9098

     occupation numbers 
     1.0000   1.0000   1.0000   1.0000   1.0000   1.0000   1.0000   1.0000
     0.0000   0.0000   0.0000   0.0000   0.0000   0.0000   0.0000   0.0000

          k = 0.0000 0.3849 0.0000     band energies (ev):

   -22.9525 -22.8545 -15.9732 -15.9242 -12.4222 -12.4038  -9.8127  -9.1263
    -0.5243  -0.1875   1.8952   1.9972   5.4131   6.5895   9.5529   9.5692

     occupation numbers 
     1.0000   1.0000   1.0000   1.0000   1.0000   1.0000   1.0000   1.0000
     0.0000   0.0000   0.0000   0.0000   0.0000   0.0000   0.0000   0.0000

          k = 0.0000 0.4811 0.0000     band energies (ev):

   -21.6203 -21.5308 -17.9571 -17.8959 -12.8724 -12.8536  -8.4658  -7.8436
    -2.5274  -2.0555   1.7096   1.8399   7.1235   8.3705  10.3603  11.8856

     occupation numbers 
     1.0000   1.0000   1.0000   1.0000   1.0000   1.0000   1.0000   1.0000
     0.0000   0.0000   0.0000   0.0000   0.0000   0.0000   0.0000   0.0000

          k = 0.0000-0.5774 0.0000     band energies (ev):

   -20.4493 -20.3632 -19.3532 -19.2872 -13.0271 -13.0075  -7.6890  -7.1178
    -3.5372  -2.9887   1.6431   1.7801   8.8882   9.0003  10.5598  12.8881

     occupation numbers 
     1.0000   1.0000   1.0000   1.0000   1.0000   1.0000   1.0000   1.0000
     1.0000   0.0000   0.0000   0.0000   0.0000   0.0000   0.0000   0.0000

          k = 0.0833 0.1443 0.0000     band energies (ev):

   -24.9613 -24.8492 -12.1354 -11.4005 -11.3954 -11.3672 -10.7818 -10.7757
     2.4155   2.5453   2.8813   3.6102   3.6499   3.8589   4.0350   4.0783

     occupation numbers 
     1.0000   1.0000   1.0000   1.0000   1.0000   1.0000   1.0000   1.0000
     0.0000   0.0000   0.0000   0.0000   0.0000   0.0000   0.0000   0.0000

          k = 0.0833 0.2406 0.0000     band energies (ev):

   -24.3360 -24.2285 -12.9869 -12.9650 -11.7003 -11.6846 -11.3921 -10.6487
     2.4289   2.5029   2.7761   2.8069   3.6515   4.6818   5.1362   5.1536

     occupation numbers 
     1.0000   1.0000   1.0000   1.0000   1.0000   1.0000   1.0000   1.0000
     0.0000   0.0000   0.0000   0.0000   0.0000   0.0000   0.0000   0.0000

          k = 0.0833 0.3368 0.0000     band energies (ev):

   -23.4098 -23.3089 -14.9235 -14.8844 -12.5351 -12.5138 -10.3172  -9.6118
     0.4283   0.6388   2.6538   2.7337   4.8161   5.9055   7.2374   7.2910

     occupation numbers 
     1.0000   1.0000   1.0000   1.0000   1.0000   1.0000   1.0000   1.0000
     0.0000   0.0000   0.0000   0.0000   0.0000   0.0000   0.0000   0.0000

          k = 0.0833 0.4330 0.0000     band energies (ev):

   -22.2036 -22.1107 -16.9219 -16.8684 -13.1393 -13.1156  -8.9996  -8.3488
    -1.6503  -1.2962   2.4474   2.5665   6.3609   7.5644   9.2245   9.5476

     occupation numbers 
     1.0000   1.0000   1.0000   1.0000   1.0000   1.0000   1.0000   1.0000
     0.0000   0.0000   0.0000   0.0000   0.0000   0.0000   0.0000   0.0000

          k = 0.0833 0.5292 0.0000     band energies (ev):

   -20.8031 -20.7177 -18.7489 -18.6844 -13.4531 -13.4287  -7.7758  -7.1913
    -3.2986  -2.8256   2.3178   2.4522   8.0928   9.3774   9.4826  10.7285

     occupation numbers 
     1.0000   1.0000   1.0000   1.0000   1.0000   1.0000   1.0000   1.0000
     0.0000   0.0000   0.0000   0.0000   0.0000   0.0000   0.0000   0.0000

          k = 0.1667 0.2887 0.0000     band energies (ev):

   -23.5634 -23.4616 -14.2418 -14.2331 -12.9218 -12.9162 -10.4861  -9.7785
     0.8565   0.9289   3.8964   4.0021   4.7391   5.3448   5.3949   5.7426

     occupation numbers 
     1.0000   1.0000   1.0000   1.0000   1.0000   1.0000   1.0000   1.0000
     0.0000   0.0000   0.0000   0.0000   0.0000   0.0000   0.0000   0.0000

          k = 0.1667 0.3849 0.0000     band energies (ev):

   -22.5022 -22.4079 -15.8681 -15.8344 -13.9159 -13.8922  -9.2829  -8.6231
    -0.9800  -0.8326   4.2298   4.3334   5.9681   6.8714   6.9077   7.1433

     occupation numbers 
     1.0000   1.0000   1.0000   1.0000   1.0000   1.0000   1.0000   1.0000
     0.0000   0.0000   0.0000   0.0000   0.0000   0.0000   0.0000   0.0000

          k = 0.1667 0.4811 0.0000     band energies (ev):

   -21.1913 -21.1055 -17.6620 -17.6089 -14.4723 -14.4401  -7.9291  -7.3294
    -2.7937  -2.5198   4.0625   4.2266   7.4854   8.5695   8.6721   9.0632

     occupation numbers 
     1.0000   1.0000   1.0000   1.0000   1.0000   1.0000   1.0000   1.0000
     0.0000   0.0000   0.0000   0.0000   0.0000   0.0000   0.0000   0.0000

          k = 0.1667 0.5774 0.0000     band energies (ev):

   -20.0476 -19.9651 -18.9876 -18.9280 -14.6514 -14.6172  -7.1067  -6.5460
    -3.7834  -3.4416   3.9892   4.1659   8.2604   8.6193   9.8112   9.9266

     occupation numbers 
     1.0000   1.0000   1.0000   1.0000   1.0000   1.0000   1.0000   1.0000
     1.0000   0.0000   0.0000   0.0000   0.0000   0.0000   0.0000   0.0000

          k = 0.2500 0.4330 0.0000     band energies (ev):

   -21.3301 -21.2450 -16.8583 -16.8461 -15.2541 -15.2457  -7.9881  -7.4066
    -2.4961  -2.3998   6.2495   6.3235   6.6026   6.6322   7.5217   8.3044

     occupation numbers 
     1.0000   1.0000   1.0000   1.0000   1.0000   1.0000   1.0000   1.0000
     0.0000   0.0000   0.0000   0.0000   0.0000   0.0000   0.0000   0.0000

          k = 0.2500 0.5292 0.0000     band energies (ev):

   -19.9875 -19.9106 -18.1937 -18.1527 -15.9326 -15.9020  -6.6841  -6.1456
    -3.9406  -3.8054   6.1477   6.3922   7.5651   7.9579   8.4276   8.6706

     occupation numbers 
     1.0000   1.0000   1.0000   1.0000   1.0000   1.0000   1.0000   1.0000
     1.0000   1.0000   0.0000   0.0000   0.0000   0.0000   0.0000   0.0000

          k = 0.3333 0.5774 0.0000     band energies (ev):

   -18.8481 -18.8264 -18.7984 -18.7757 -16.7162 -16.6981  -5.3927  -5.2400
    -5.0345  -4.8663   6.9833   7.4323   7.6733   8.2145   8.3048   8.4589

     occupation numbers 
     1.0000   1.0000   1.0000   1.0000   1.0000   1.0000   1.0000   1.0000
     1.0000   1.0000   0.0000   0.0000   0.0000   0.0000   0.0000   0.0000

          k =-0.0833 0.0481 0.0000     band energies (ev):

   -25.2759 -25.1615 -12.5131 -11.7344 -10.4568 -10.4430 -10.1731 -10.1711
     2.1264   2.2029   2.4135   2.7524   2.7537   3.3720   4.9223   5.0021

     occupation numbers 
     1.0000   1.0000   1.0000   1.0000   1.0000   1.0000   1.0000   1.0000
     0.0000   0.0000   0.0000   0.0000   0.0000   0.0000   0.0000   0.0000

          k = 0.0833 0.0481 0.0000     band energies (ev):

   -25.2759 -25.1615 -12.5131 -11.7344 -10.4568 -10.4430 -10.1730 -10.1711
     2.1305   2.2027   2.4167   2.7524   2.7536   3.3726   4.9220   5.0017

     occupation numbers 
     1.0000   1.0000   1.0000   1.0000   1.0000   1.0000   1.0000   1.0000
     0.0000   0.0000   0.0000   0.0000   0.0000   0.0000   0.0000   0.0000

          k =-0.1667 0.0962 0.0000     band energies (ev):

   -24.8043 -24.6935 -11.9544 -11.9476 -11.9289 -11.1879 -10.9006 -10.8974
     2.2343   2.2898   3.0176   3.5371   3.6992   4.0376   4.4881   4.4888

     occupation numbers 
     1.0000   1.0000   1.0000   1.0000   1.0000   1.0000   1.0000   1.0000
     0.0000   0.0000   0.0000   0.0000   0.0000   0.0000   0.0000   0.0000

          k = 0.1667 0.0962 0.0000     band energies (ev):

   -24.8043 -24.6935 -11.9544 -11.9476 -11.9290 -11.1880 -10.9006 -10.8974
     2.2344   2.2915   3.0221   3.5373   3.6992   4.0342   4.4877   4.4889

     occupation numbers 
     1.0000   1.0000   1.0000   1.0000   1.0000   1.0000   1.0000   1.0000
     0.0000   0.0000   0.0000   0.0000   0.0000   0.0000   0.0000   0.0000

          k =-0.2500 0.1443 0.0000     band energies (ev):

   -24.0252 -23.9203 -13.9037 -13.8658 -11.7226 -11.7188 -11.0257 -10.3031
     1.6127   1.8647   2.1438   2.1721   4.0241   5.1159   6.8959   6.8962

     occupation numbers 
     1.0000   1.0000   1.0000   1.0000   1.0000   1.0000   1.0000   1.0000
     0.0000   0.0000   0.0000   0.0000   0.0000   0.0000   0.0000   0.0000

          k = 0.2500 0.1443 0.0000     band energies (ev):

   -24.0252 -23.9203 -13.9037 -13.8658 -11.7226 -11.7188 -11.0257 -10.3031
     1.6128   1.8647   2.1446   2.1722   4.0314   5.0992   6.8940   6.8974

     occupation numbers 
     1.0000   1.0000   1.0000   1.0000   1.0000   1.0000   1.0000   1.0000
     0.0000   0.0000   0.0000   0.0000   0.0000   0.0000   0.0000   0.0000

          k =-0.3333 0.1925 0.0000     band energies (ev):

   -22.9517 -22.8550 -15.9737 -15.9229 -12.4158 -12.4115  -9.7982  -9.1434
    -0.5228  -0.1807   1.9313   1.9580   5.4093   6.5865   9.5491   9.5650

     occupation numbers 
     1.0000   1.0000   1.0000   1.0000   1.0000   1.0000   1.0000   1.0000
     0.0000   0.0000   0.0000   0.0000   0.0000   0.0000   0.0000   0.0000

          k = 0.3333 0.1925 0.0000     band energies (ev):

   -22.9517 -22.8550 -15.9737 -15.9229 -12.4157 -12.4117  -9.7982  -9.1434
    -0.5229  -0.1806   1.9312   1.9580   5.4138   6.5477   9.5468   9.5580

     occupation numbers 
     1.0000   1.0000   1.0000   1.0000   1.0000   1.0000   1.0000   1.0000
     0.0000   0.0000   0.0000   0.0000   0.0000   0.0000   0.0000   0.0000

          k =-0.4167 0.2406 0.0000     band energies (ev):

   -21.6178 -21.5331 -17.9569 -17.8955 -12.8659 -12.8612  -8.4097  -7.9126
    -2.4564  -2.1091   1.7583   1.7894   7.1196   8.3630  10.3553  11.8604

     occupation numbers 
     1.0000   1.0000   1.0000   1.0000   1.0000   1.0000   1.0000   1.0000
     0.0000   0.0000   0.0000   0.0000   0.0000   0.0000   0.0000   0.0000

          k = 0.4167 0.2406 0.0000     band energies (ev):

   -21.6178 -21.5331 -17.9569 -17.8954 -12.8658 -12.8614  -8.4097  -7.9126
    -2.4564  -2.1090   1.7583   1.7895   7.1171   8.3533  10.3450  11.8731

     occupation numbers 
     1.0000   1.0000   1.0000   1.0000   1.0000   1.0000   1.0000   1.0000
     0.0000   0.0000   0.0000   0.0000   0.0000   0.0000   0.0000   0.0000

          k = 0.5000-0.2887 0.0000     band energies (ev):

   -20.4165 -20.3984 -19.3258 -19.3113 -13.0202 -13.0158  -7.4826  -7.3638
    -3.3102  -3.1716   1.6951   1.7268   8.9092   8.9353  12.8848  12.8904

     occupation numbers 
     1.0000   1.0000   1.0000   1.0000   1.0000   1.0000   1.0000   1.0000
     0.0000   0.0000   0.0000   0.0000   0.0000   0.0000   0.0000   0.0000

          k =-0.5000-0.2887 0.0000     band energies (ev):

   -20.4164 -20.3984 -19.3258 -19.3113 -13.0202 -13.0157  -7.4826  -7.3638
    -3.3101  -3.1716   1.6948   1.7269   8.9151   8.9329  12.8849  12.8909

     occupation numbers 
     1.0000   1.0000   1.0000   1.0000   1.0000   1.0000   1.0000   1.0000
     0.0000   0.0000   0.0000   0.0000   0.0000   0.0000   0.0000   0.0000

          k =-0.0833 0.1443 0.0000     band energies (ev):

   -24.9612 -24.8492 -12.1354 -11.4005 -11.3954 -11.3672 -10.7818 -10.7756
     2.4206   2.5453   2.8842   3.6101   3.6499   3.8838   4.0348   4.0784

     occupation numbers 
     1.0000   1.0000   1.0000   1.0000   1.0000   1.0000   1.0000   1.0000
     0.0000   0.0000   0.0000   0.0000   0.0000   0.0000   0.0000   0.0000

          k = 0.1667-0.0000 0.0000     band energies (ev):

   -24.9612 -24.8492 -12.1345 -11.4087 -11.3843 -11.3690 -10.7827 -10.7770
     2.4248   2.5307   2.8847   3.6111   3.6528   3.8464   3.9700   4.1377

     occupation numbers 
     1.0000   1.0000   1.0000   1.0000   1.0000   1.0000   1.0000   1.0000
     0.0000   0.0000   0.0000   0.0000   0.0000   0.0000   0.0000   0.0000

          k =-0.0833 0.2406 0.0000     band energies (ev):

   -24.3360 -24.2285 -12.9869 -12.9650 -11.7002 -11.6846 -11.3922 -10.6488
     2.4291   2.5028   2.7771   2.8077   3.6549   4.6348   5.1355   5.1523

     occupation numbers 
     1.0000   1.0000   1.0000   1.0000   1.0000   1.0000   1.0000   1.0000
     0.0000   0.0000   0.0000   0.0000   0.0000   0.0000   0.0000   0.0000

          k =-0.1667 0.1925 0.0000     band energies (ev):

   -24.3359 -24.2286 -12.9866 -12.9644 -11.6970 -11.6892 -11.3907 -10.6504
     2.4118   2.5245   2.7547   2.8243   3.6511   4.6708   5.1183   5.1735

     occupation numbers 
     1.0000   1.0000   1.0000   1.0000   1.0000   1.0000   1.0000   1.0000
     0.0000   0.0000   0.0000   0.0000   0.0000   0.0000   0.0000   0.0000

          k = 0.2500 0.0481 0.0000     band energies (ev):

   -24.3358 -24.2286 -12.9919 -12.9582 -11.6996 -11.6874 -11.3893 -10.6519
     2.3505   2.6082   2.7552   2.8025   3.6535   4.6723   5.1329   5.1610

     occupation numbers 
     1.0000   1.0000   1.0000   1.0000   1.0000   1.0000   1.0000   1.0000
     0.0000   0.0000   0.0000   0.0000   0.0000   0.0000   0.0000   0.0000

          k =-0.1667-0.1925 0.0000     band energies (ev):

   -24.3359 -24.2286 -12.9866 -12.9644 -11.6970 -11.6892 -11.3907 -10.6504
     2.4116   2.5249   2.7565   2.8246   3.6472   4.6703   5.1154   5.1744

     occupation numbers 
     1.0000   1.0000   1.0000   1.0000   1.0000   1.0000   1.0000   1.0000
     0.0000   0.0000   0.0000   0.0000   0.0000   0.0000   0.0000   0.0000

          k = 0.2500-0.0481 0.0000     band energies (ev):

   -24.3358 -24.2286 -12.9919 -12.9582 -11.6997 -11.6874 -11.3892 -10.6520
     2.3507   2.6086   2.7557   2.8017   3.6559   4.6672   5.1350   5.1572

     occupation numbers 
     1.0000   1.0000   1.0000   1.0000   1.0000   1.0000   1.0000   1.0000
     0.0000   0.0000   0.0000   0.0000   0.0000   0.0000   0.0000   0.0000

          k =-0.0833 0.3368 0.0000     band energies (ev):

   -23.4098 -23.3089 -14.9235 -14.8843 -12.5351 -12.5138 -10.3172  -9.6117
     0.4283   0.6388   2.6568   2.7336   4.8208   5.9462   7.2332   7.2913

     occupation numbers 
     1.0000   1.0000   1.0000   1.0000   1.0000   1.0000   1.0000   1.0000
     0.0000   0.0000   0.0000   0.0000   0.0000   0.0000   0.0000   0.0000

          k =-0.2500 0.2406 0.0000     band energies (ev):

   -23.4096 -23.3092 -14.9234 -14.8836 -12.5322 -12.5179 -10.3111  -9.6191
     0.4234   0.6478   2.6696   2.7182   4.8207   5.9334   7.2080   7.3033

     occupation numbers 
     1.0000   1.0000   1.0000   1.0000   1.0000   1.0000   1.0000   1.0000
     0.0000   0.0000   0.0000   0.0000   0.0000   0.0000   0.0000   0.0000

          k = 0.3333 0.0962 0.0000     band energies (ev):

   -23.4093 -23.3093 -14.9261 -14.8807 -12.5333 -12.5172 -10.3088  -9.6214
     0.3657   0.7111   2.6752   2.7065   4.8162   5.9336   7.2358   7.2871

     occupation numbers 
     1.0000   1.0000   1.0000   1.0000   1.0000   1.0000   1.0000   1.0000
     0.0000   0.0000   0.0000   0.0000   0.0000   0.0000   0.0000   0.0000

          k =-0.2500-0.2406 0.0000     band energies (ev):

   -23.4095 -23.3092 -14.9234 -14.8836 -12.5322 -12.5179 -10.3110  -9.6191
     0.4234   0.6480   2.6694   2.7182   4.8134   5.9342   7.2086   7.3181

     occupation numbers 
     1.0000   1.0000   1.0000   1.0000   1.0000   1.0000   1.0000   1.0000
     0.0000   0.0000   0.0000   0.0000   0.0000   0.0000   0.0000   0.0000

          k = 0.3333-0.0962 0.0000     band energies (ev):

   -23.4094 -23.3093 -14.9261 -14.8807 -12.5332 -12.5172 -10.3088  -9.6214
     0.3657   0.7116   2.6750   2.7068   4.8180   5.9387   7.2372   7.2946

     occupation numbers 
     1.0000   1.0000   1.0000   1.0000   1.0000   1.0000   1.0000   1.0000
     0.0000   0.0000   0.0000   0.0000   0.0000   0.0000   0.0000   0.0000

          k =-0.0833 0.4330 0.0000     band energies (ev):

   -22.2036 -22.1107 -16.9219 -16.8684 -13.1392 -13.1156  -8.9996  -8.3488
    -1.6504  -1.2961   2.4469   2.5665   6.3605   7.5381   9.2295   9.5412

     occupation numbers 
     1.0000   1.0000   1.0000   1.0000   1.0000   1.0000   1.0000   1.0000
     0.0000   0.0000   0.0000   0.0000   0.0000   0.0000   0.0000   0.0000

          k =-0.3333 0.2887 0.0000     band energies (ev):

   -22.2026 -22.1118 -16.9219 -16.8679 -13.1367 -13.1195  -8.9746  -8.3793
    -1.6194  -1.3173   2.4809   2.5272   6.3613   7.5259   9.2144   9.5559

     occupation numbers 
     1.0000   1.0000   1.0000   1.0000   1.0000   1.0000   1.0000   1.0000
     0.0000   0.0000   0.0000   0.0000   0.0000   0.0000   0.0000   0.0000

          k = 0.4167 0.1443 0.0000     band energies (ev):

   -22.2023 -22.1119 -16.9233 -16.8663 -13.1370 -13.1192  -8.9720  -8.3817
    -1.6663  -1.2674   2.4865   2.5230   6.3564   7.5057   9.2328   9.5440

     occupation numbers 
     1.0000   1.0000   1.0000   1.0000   1.0000   1.0000   1.0000   1.0000
     0.0000   0.0000   0.0000   0.0000   0.0000   0.0000   0.0000   0.0000

          k =-0.3333-0.2887 0.0000     band energies (ev):

   -22.2025 -22.1118 -16.9219 -16.8678 -13.1367 -13.1195  -8.9745  -8.3793
    -1.6194  -1.3171   2.4809   2.5272   6.3542   7.5241   9.2134   9.5980

     occupation numbers 
     1.0000   1.0000   1.0000   1.0000   1.0000   1.0000   1.0000   1.0000
     0.0000   0.0000   0.0000   0.0000   0.0000   0.0000   0.0000   0.0000

          k = 0.4167-0.1443 0.0000     band energies (ev):

   -22.2024 -22.1119 -16.9234 -16.8663 -13.1371 -13.1193  -8.9721  -8.3817
    -1.6672  -1.2688   2.4818   2.5230   6.3552   7.5084   8.5117   9.2113

     occupation numbers 
     1.0000   1.0000   1.0000   1.0000   1.0000   1.0000   1.0000   1.0000
     0.0000   0.0000   0.0000   0.0000   0.0000   0.0000   0.0000   0.0000

          k =-0.0833 0.5292 0.0000     band energies (ev):

   -20.8031 -20.7177 -18.7489 -18.6844 -13.4531 -13.4287  -7.7758  -7.1912
    -3.2986  -2.8258   2.3182   2.4522   8.0926   9.3890   9.4992  10.7225

     occupation numbers 
     1.0000   1.0000   1.0000   1.0000   1.0000   1.0000   1.0000   1.0000
     0.0000   0.0000   0.0000   0.0000   0.0000   0.0000   0.0000   0.0000

          k =-0.4167 0.3368 0.0000     band energies (ev):

   -20.7962 -20.7250 -18.7453 -18.6876 -13.4508 -13.4324  -7.6592  -7.3358
    -3.1530  -2.9384   2.3561   2.4038   8.0766   9.0804   9.6312   9.8686

     occupation numbers 
     1.0000   1.0000   1.0000   1.0000   1.0000   1.0000   1.0000   1.0000
     0.0000   0.0000   0.0000   0.0000   0.0000   0.0000   0.0000   0.0000

          k = 0.5000 0.1925 0.0000     band energies (ev):

   -20.7960 -20.7252 -18.7465 -18.6865 -13.4509 -13.4323  -7.6581  -7.3361
    -3.1919  -2.8995   2.3561   2.4028   8.0893   9.0119   9.8045   9.8763

     occupation numbers 
     1.0000   1.0000   1.0000   1.0000   1.0000   1.0000   1.0000   1.0000
     0.0000   0.0000   0.0000   0.0000   0.0000   0.0000   0.0000   0.0000

          k =-0.4167-0.3368 0.0000     band energies (ev):

   -20.7961 -20.7249 -18.7451 -18.6875 -13.4508 -13.4322  -7.6592  -7.3358
    -3.1530  -2.9385   2.3562   2.4112   8.0755   9.0842   9.6306   9.8743

     occupation numbers 
     1.0000   1.0000   1.0000   1.0000   1.0000   1.0000   1.0000   1.0000
     0.0000   0.0000   0.0000   0.0000   0.0000   0.0000   0.0000   0.0000

          k = 0.5000-0.1925 0.0000     band energies (ev):

   -20.7959 -20.7251 -18.7465 -18.6865 -13.4509 -13.4324  -7.6581  -7.3361
    -3.1919  -2.8995   2.3562   2.4028   8.0896   9.0060   9.7995   9.8773

     occupation numbers 
     1.0000   1.0000   1.0000   1.0000   1.0000   1.0000   1.0000   1.0000
     0.0000   0.0000   0.0000   0.0000   0.0000   0.0000   0.0000   0.0000

          k =-0.1667 0.2887 0.0000     band energies (ev):

   -23.5634 -23.4616 -14.2418 -14.2331 -12.9218 -12.9162 -10.4862  -9.7786
     0.8566   0.9289   3.8950   4.0015   4.7414   5.3454   5.3946   5.7298

     occupation numbers 
     1.0000   1.0000   1.0000   1.0000   1.0000   1.0000   1.0000   1.0000
     0.0000   0.0000   0.0000   0.0000   0.0000   0.0000   0.0000   0.0000

          k = 0.3333-0.0000 0.0000     band energies (ev):

   -23.5630 -23.4619 -14.2573 -14.2160 -12.9317 -12.9082 -10.4813  -9.7837
     0.7269   1.0681   3.9055   3.9691   4.7480   5.3604   5.3837   5.6984

     occupation numbers 
     1.0000   1.0000   1.0000   1.0000   1.0000   1.0000   1.0000   1.0000
     0.0000   0.0000   0.0000   0.0000   0.0000   0.0000   0.0000   0.0000

          k =-0.1667 0.3849 0.0000     band energies (ev):

   -22.5022 -22.4079 -15.8681 -15.8344 -13.9159 -13.8922  -9.2829  -8.6231
    -0.9800  -0.8325   4.2295   4.3337   5.9806   6.8700   6.9093   7.1444

     occupation numbers 
     1.0000   1.0000   1.0000   1.0000   1.0000   1.0000   1.0000   1.0000
     0.0000   0.0000   0.0000   0.0000   0.0000   0.0000   0.0000   0.0000

          k =-0.2500 0.3368 0.0000     band energies (ev):
[...]
     0.0000   0.0000   0.0000   0.0000   0.0000   0.0000   0.0000   0.0000

          k =-0.3333 0.2887 0.0000 (  3041 PWs)   bands (ev):

   -16.6845 -16.5479 -11.1592 -11.0755  -7.0977  -7.0698  -4.6770  -3.8436
     2.9769   3.4470   7.4824   7.7686   7.8145   7.9933   8.7587   9.8679

     occupation numbers 
     1.0000   1.0000   1.0000   1.0000   1.0000   1.0000   1.0000   1.0000
     0.0000   0.0000   0.0000   0.0000   0.0000   0.0000   0.0000   0.0000

          k = 0.4167 0.1443 0.0000 (  3041 PWs)   bands (ev):

   -16.6842 -16.5482 -11.1610 -11.0734  -7.0983  -7.0695  -4.6741  -3.8466
     2.9204   3.5104   7.4938   7.7113   7.8432   7.9958   8.7596   9.8633

     occupation numbers 
     1.0000   1.0000   1.0000   1.0000   1.0000   1.0000   1.0000   1.0000
     0.0000   0.0000   0.0000   0.0000   0.0000   0.0000   0.0000   0.0000

          k =-0.3333-0.2887 0.0000 (  3041 PWs)   bands (ev):

   -16.6845 -16.5479 -11.1592 -11.0755  -7.0977  -7.0698  -4.6770  -3.8436
     2.9769   3.4470   7.4824   7.7686   7.8145   7.9933   8.7587   9.8679

     occupation numbers 
     1.0000   1.0000   1.0000   1.0000   1.0000   1.0000   1.0000   1.0000
     0.0000   0.0000   0.0000   0.0000   0.0000   0.0000   0.0000   0.0000

          k = 0.4167-0.1443 0.0000 (  3041 PWs)   bands (ev):

   -16.6842 -16.5482 -11.1610 -11.0734  -7.0983  -7.0695  -4.6741  -3.8466
     2.9204   3.5104   7.4938   7.7113   7.8432   7.9958   8.7595   9.8633

     occupation numbers 
     1.0000   1.0000   1.0000   1.0000   1.0000   1.0000   1.0000   1.0000
     0.0000   0.0000   0.0000   0.0000   0.0000   0.0000   0.0000   0.0000

          k =-0.0833 0.5292 0.0000 (  3043 PWs)   bands (ev):

   -15.2053 -15.0773 -13.1012 -13.0029  -7.4292  -7.3906  -3.3606  -2.5493
     1.0844   1.8075   7.4984   7.7107   9.6946  10.1172  10.9841  11.8286

     occupation numbers 
     1.0000   1.0000   1.0000   1.0000   1.0000   1.0000   1.0000   1.0000
     0.0000   0.0000   0.0000   0.0000   0.0000   0.0000   0.0000   0.0000

          k =-0.4167 0.3368 0.0000 (  3043 PWs)   bands (ev):

   -15.1966 -15.0871 -13.0960 -13.0056  -7.4255  -7.3959  -3.2169  -2.7487
     1.3102   1.6477   7.5663   7.6400   9.6968  10.1233  10.9796  11.7258

     occupation numbers 
     1.0000   1.0000   1.0000   1.0000   1.0000   1.0000   1.0000   1.0000
     0.0000   0.0000   0.0000   0.0000   0.0000   0.0000   0.0000   0.0000

          k = 0.5000 0.1925 0.0000 (  3043 PWs)   bands (ev):

   -15.1964 -15.0873 -13.0975 -13.0041  -7.4257  -7.3958  -3.2154  -2.7490
     1.2637   1.6951   7.5659   7.6374   9.6968  10.1045  10.9839  11.8375

     occupation numbers 
     1.0000   1.0000   1.0000   1.0000   1.0000   1.0000   1.0000   1.0000
     0.0000   0.0000   0.0000   0.0000   0.0000   0.0000   0.0000   0.0000

          k =-0.4167-0.3368 0.0000 (  3043 PWs)   bands (ev):

   -15.1966 -15.0871 -13.0960 -13.0056  -7.4255  -7.3959  -3.2169  -2.7487
     1.3102   1.6477   7.5663   7.6400   9.6968  10.1233  10.9796  11.7258

     occupation numbers 
     1.0000   1.0000   1.0000   1.0000   1.0000   1.0000   1.0000   1.0000
     0.0000   0.0000   0.0000   0.0000   0.0000   0.0000   0.0000   0.0000

          k = 0.5000-0.1925 0.0000 (  3043 PWs)   bands (ev):

   -15.1964 -15.0873 -13.0975 -13.0041  -7.4257  -7.3958  -3.2154  -2.7490
     1.2637   1.6951   7.5659   7.6374   9.6968  10.1045  10.9839  11.8373

     occupation numbers 
     1.0000   1.0000   1.0000   1.0000   1.0000   1.0000   1.0000   1.0000
     0.0000   0.0000   0.0000   0.0000   0.0000   0.0000   0.0000   0.0000

          k =-0.1667 0.2887 0.0000 (  3039 PWs)   bands (ev):

   -18.1088 -17.9567  -8.2721  -8.2588  -6.9275  -6.9186  -6.2888  -5.3196
     5.5801   5.7826   5.8881   5.9764   6.7214   7.8555   8.2074   9.4487

     occupation numbers 
     1.0000   1.0000   1.0000   1.0000   1.0000   1.0000   1.0000   1.0000
     0.0000   0.0000   0.0000   0.0000   0.0000   0.0000   0.0000   0.0000

          k = 0.3333-0.0000 0.0000 (  3039 PWs)   bands (ev):

   -18.1084 -17.9571  -8.2954  -8.2318  -6.9443  -6.9058  -6.2837  -5.3258
     5.5816   5.5982   5.9682   6.1008   6.7213   7.8516   8.2057   9.3851

     occupation numbers 
     1.0000   1.0000   1.0000   1.0000   1.0000   1.0000   1.0000   1.0000
     0.0000   0.0000   0.0000   0.0000   0.0000   0.0000   0.0000   0.0000

          k =-0.1667 0.3849 0.0000 (  3045 PWs)   bands (ev):

   -16.9987 -16.8573 -10.0119  -9.9580  -7.9934  -7.9548  -5.0149  -4.1032
     3.7803   4.0175   7.1093   7.4958   8.2962   9.3625   9.4995   9.6256

     occupation numbers 
     1.0000   1.0000   1.0000   1.0000   1.0000   1.0000   1.0000   1.0000
     0.0000   0.0000   0.0000   0.0000   0.0000   0.0000   0.0000   0.0000

          k =-0.2500 0.3368 0.0000 (  3045 PWs)   bands (ev):

   -16.9983 -16.8576 -10.0115  -9.9573  -7.9918  -7.9576  -5.0069  -4.1138
     3.7829   4.0232   7.1079   7.5032   8.2960   9.3913   9.4878   9.7579

     occupation numbers 
     1.0000   1.0000   1.0000   1.0000   1.0000   1.0000   1.0000   1.0000
     0.0000   0.0000   0.0000   0.0000   0.0000   0.0000   0.0000   0.0000

          k = 0.4167 0.0481 0.0000 (  3045 PWs)   bands (ev):

   -16.9977 -16.8582 -10.0227  -9.9443  -8.0000  -7.9514  -4.9994  -4.1225
     3.6178   4.2097   7.1096   7.4895   8.2958   9.3504   9.4828   9.6533

     occupation numbers 
     1.0000   1.0000   1.0000   1.0000   1.0000   1.0000   1.0000   1.0000
     0.0000   0.0000   0.0000   0.0000   0.0000   0.0000   0.0000   0.0000

          k =-0.2500-0.3368 0.0000 (  3045 PWs)   bands (ev):

   -16.9983 -16.8576 -10.0115  -9.9573  -7.9918  -7.9576  -5.0069  -4.1138
     3.7829   4.0232   7.1079   7.5032   8.2960   9.3915   9.4879   9.7585

     occupation numbers 
     1.0000   1.0000   1.0000   1.0000   1.0000   1.0000   1.0000   1.0000
     0.0000   0.0000   0.0000   0.0000   0.0000   0.0000   0.0000   0.0000

          k = 0.4167-0.0481 0.0000 (  3045 PWs)   bands (ev):

   -16.9977 -16.8582 -10.0227  -9.9443  -8.0000  -7.9514  -4.9994  -4.1225
     3.6178   4.2097   7.1096   7.4895   8.2958   9.3504   9.4828   9.6533

     occupation numbers 
     1.0000   1.0000   1.0000   1.0000   1.0000   1.0000   1.0000   1.0000
     0.0000   0.0000   0.0000   0.0000   0.0000   0.0000   0.0000   0.0000

          k =-0.1667 0.4811 0.0000 (  3041 PWs)   bands (ev):

   -15.6207 -15.4917 -11.9291 -11.8462  -8.5734  -8.5219  -3.5586  -2.7241
     1.7799   2.2157   9.0242   9.2568   9.4900   9.6145  10.3148  10.9644

     occupation numbers 
     1.0000   1.0000   1.0000   1.0000   1.0000   1.0000   1.0000   1.0000
     0.0000   0.0000   0.0000   0.0000   0.0000   0.0000   0.0000   0.0000

          k =-0.3333 0.3849 0.0000 (  3041 PWs)   bands (ev):

   -15.6184 -15.4942 -11.9281 -11.8458  -8.5725  -8.5242  -3.5075  -2.7959
     1.8467   2.1816   9.0060   9.4026   9.4426   9.5665  10.2955  10.8434

     occupation numbers 
     1.0000   1.0000   1.0000   1.0000   1.0000   1.0000   1.0000   1.0000
     0.0000   0.0000   0.0000   0.0000   0.0000   0.0000   0.0000   0.0000

          k = 0.5000 0.0962 0.0000 (  3041 PWs)   bands (ev):

   -15.6176 -15.4949 -11.9332 -11.8402  -8.5749  -8.5225  -3.4993  -2.8028
     1.7143   2.3240   9.0210   9.2542   9.5060   9.5641  10.3154  11.0718

     occupation numbers 
     1.0000   1.0000   1.0000   1.0000   1.0000   1.0000   1.0000   1.0000
     0.0000   0.0000   0.0000   0.0000   0.0000   0.0000   0.0000   0.0000

          k =-0.3333-0.3849 0.0000 (  3041 PWs)   bands (ev):

   -15.6184 -15.4942 -11.9281 -11.8458  -8.5725  -8.5242  -3.5075  -2.7959
     1.8467   2.1816   9.0060   9.4026   9.4426   9.5665  10.2955  10.8434

     occupation numbers 
     1.0000   1.0000   1.0000   1.0000   1.0000   1.0000   1.0000   1.0000
     0.0000   0.0000   0.0000   0.0000   0.0000   0.0000   0.0000   0.0000

          k = 0.5000-0.0962 0.0000 (  3041 PWs)   bands (ev):

   -15.6176 -15.4949 -11.9332 -11.8402  -8.5749  -8.5225  -3.4993  -2.8028
     1.7143   2.3240   9.0210   9.2542   9.5060   9.5641  10.3154  11.0718

     occupation numbers 
     1.0000   1.0000   1.0000   1.0000   1.0000   1.0000   1.0000   1.0000
     0.0000   0.0000   0.0000   0.0000   0.0000   0.0000   0.0000   0.0000

          k =-0.4167 0.4330 0.0000 (  3008 PWs)   bands (ev):

   -14.3427 -14.3167 -13.3237 -13.3015  -8.7587  -8.7063  -2.3770  -2.2177
     0.8777   1.0993   9.2963   9.4712  10.9041  11.1905  11.2948  11.3527

     occupation numbers 
     1.0000   1.0000   1.0000   1.0000   1.0000   1.0000   1.0000   1.0000
     0.0000   0.0000   0.0000   0.0000   0.0000   0.0000   0.0000   0.0000

          k = 0.5833 0.1443 0.0000 (  3008 PWs)   bands (ev):

   -14.3427 -14.3167 -13.3237 -13.3015  -8.7587  -8.7063  -2.3770  -2.2177
     0.8777   1.0993   9.2963   9.4712  10.9041  11.1905  11.2948  11.3527

     occupation numbers 
     1.0000   1.0000   1.0000   1.0000   1.0000   1.0000   1.0000   1.0000
     0.0000   0.0000   0.0000   0.0000   0.0000   0.0000   0.0000   0.0000

          k =-0.2500 0.4330 0.0000 (  3033 PWs)   bands (ev):

   -15.7677 -15.6392 -11.0260 -11.0075  -9.4561  -9.4427  -3.6340  -2.8203
     2.2236   2.3605   8.8201   9.1366  10.0462  10.4531  11.0165  11.5240

     occupation numbers 
     1.0000   1.0000   1.0000   1.0000   1.0000   1.0000   1.0000   1.0000
     0.0000   0.0000   0.0000   0.0000   0.0000   0.0000   0.0000   0.0000

          k = 0.5000 0.0000 0.0000 (  3033 PWs)   bands (ev):

   -15.7662 -15.6407 -11.0590 -10.9707  -9.4827  -9.4201  -3.6104  -2.8475
     1.9792   2.6339   8.8232   9.0704  10.0581  10.6089  10.8671  11.5001

     occupation numbers 
     1.0000   1.0000   1.0000   1.0000   1.0000   1.0000   1.0000   1.0000
     0.0000   0.0000   0.0000   0.0000   0.0000   0.0000   0.0000   0.0000

          k =-0.2500 0.5292 0.0000 (  3013 PWs)   bands (ev):

   -14.3438 -14.2277 -12.4652 -12.3992 -10.1796 -10.1286  -2.2254  -1.4733
     0.6706   0.8827  10.1788  10.4959  10.8260  11.4693  12.0010  12.2210

     occupation numbers 
     1.0000   1.0000   1.0000   1.0000   1.0000   1.0000   1.0000   1.0000
     0.0000   0.0000   0.0000   0.0000   0.0000   0.0000   0.0000   0.0000

          k =-0.3333 0.4811 0.0000 (  3013 PWs)   bands (ev):

   -14.3377 -14.2347 -12.4617 -12.4006 -10.1812 -10.1283  -2.1337  -1.6119
     0.7267   0.8844  10.1142  10.5524  10.8150  11.4972  11.7668  12.3402

     occupation numbers 
     1.0000   1.0000   1.0000   1.0000   1.0000   1.0000   1.0000   1.0000
     0.0000   0.0000   0.0000   0.0000   0.0000   0.0000   0.0000   0.0000

          k = 0.5833 0.0481 0.0000 (  3013 PWs)   bands (ev):

   -14.3358 -14.2366 -12.4779 -12.3831 -10.1881 -10.1227  -2.1132  -1.6206
     0.4935   1.1164   9.9694  10.6953  10.8813  11.4758  11.9476  12.0836

     occupation numbers 
     1.0000   1.0000   1.0000   1.0000   1.0000   1.0000   1.0000   1.0000
     0.0000   0.0000   0.0000   0.0000   0.0000   0.0000   0.0000   0.0000

          k =-0.3333-0.4811 0.0000 (  3013 PWs)   bands (ev):

   -14.3377 -14.2347 -12.4617 -12.4006 -10.1812 -10.1283  -2.1337  -1.6119
     0.7267   0.8844  10.1142  10.5524  10.8150  11.4972  11.7668  12.3400

     occupation numbers 
     1.0000   1.0000   1.0000   1.0000   1.0000   1.0000   1.0000   1.0000
     0.0000   0.0000   0.0000   0.0000   0.0000   0.0000   0.0000   0.0000

          k = 0.5833-0.0481 0.0000 (  3013 PWs)   bands (ev):

   -14.3358 -14.2366 -12.4779 -12.3831 -10.1881 -10.1227  -2.1132  -1.6206
     0.4935   1.1164   9.9694  10.6953  10.8813  11.4758  11.9477  12.0839

     occupation numbers 
     1.0000   1.0000   1.0000   1.0000   1.0000   1.0000   1.0000   1.0000
     0.0000   0.0000   0.0000   0.0000   0.0000   0.0000   0.0000   0.0000

     the Fermi energy is    -0.5903 ev

!    total energy              =     -45.57772913 Ry
     Harris-Foulkes estimate   =     -45.57772912 Ry
     estimated scf accuracy    <          1.7E-11 Ry

     The total energy is the sum of the following terms:

     one-electron contribution =    -543.44656143 Ry
     hartree contribution      =     275.19489225 Ry
     xc contribution           =     -14.03328556 Ry
     ewald contribution        =     236.70722562 Ry
     smearing contrib. (-TS)   =       0.00000000 Ry

     total magnetization       =     0.00 Bohr mag/cell
     absolute magnetization    =     0.00 Bohr mag/cell

     convergence has been achieved in  13 iterations

     Forces acting on atoms (Ry/au):

     atom    1 type  1   force =     0.00015515   -0.00023626   -0.00272511
     atom    2 type  1   force =     0.00015515    0.00023632   -0.00272511
     atom    3 type  1   force =    -0.00015516   -0.00023625    0.00272511
     atom    4 type  1   force =    -0.00015515    0.00023619    0.00272511
     The non-local contrib.  to forces
     atom    1 type  1   force =     0.00009345    0.00023952   -0.00142784
     atom    2 type  1   force =     0.00009346   -0.00023951   -0.00142784
     atom    3 type  1   force =    -0.00009003    0.00023950    0.00139379
     atom    4 type  1   force =    -0.00009002   -0.00023961    0.00139380
     The ionic contribution  to forces
     atom    1 type  1   force =     0.00046351    0.00178620  -14.30904909
     atom    2 type  1   force =     0.00046351   -0.00178620  -14.30904909
     atom    3 type  1   force =    -0.00046351    0.00178620   14.30904909
     atom    4 type  1   force =    -0.00046351   -0.00178620   14.30904909
     The local contribution  to forces
     atom    1 type  1   force =    -0.00040016   -0.00226193   14.30772790
     atom    2 type  1   force =    -0.00040014    0.00226193   14.30772791
     atom    3 type  1   force =     0.00040002   -0.00226191  -14.30773061
     atom    4 type  1   force =     0.00040004    0.00226190  -14.30773061
     The core correction contribution to forces
     atom    1 type  1   force =     0.00000000    0.00000000    0.00000000
     atom    2 type  1   force =     0.00000000    0.00000000    0.00000000
     atom    3 type  1   force =     0.00000000    0.00000000    0.00000000
     atom    4 type  1   force =     0.00000000    0.00000000    0.00000000
     The Hubbard contrib.    to forces
     atom    1 type  1   force =     0.00000000    0.00000000    0.00000000
     atom    2 type  1   force =     0.00000000    0.00000000    0.00000000
     atom    3 type  1   force =     0.00000000    0.00000000    0.00000000
     atom    4 type  1   force =     0.00000000    0.00000000    0.00000000
     The SCF correction term to forces
     atom    1 type  1   force =    -0.00000000   -0.00000007    0.00000658
     atom    2 type  1   force =    -0.00000003    0.00000007    0.00000658
     atom    3 type  1   force =     0.00000001   -0.00000007   -0.00000450
     atom    4 type  1   force =    -0.00000002    0.00000007   -0.00000450

     Total force =     0.005479     Total SCF correction =     0.000011


     entering subroutine stress ...

          total   stress  (Ry/bohr**3)                   (kbar)     P=   -4.42
  -0.00006191  -0.00000000  -0.00000275         -9.11     -0.00     -0.41
  -0.00000000  -0.00006992   0.00000000         -0.00    -10.29      0.00
  -0.00000275   0.00000000   0.00004175         -0.41      0.00      6.14

     kinetic stress (kbar)   3526.40     -0.00     -0.47
                               -0.00   3524.89      0.00
                               -0.47      0.00   4089.17

     local   stress (kbar)-116139.99     -0.00      1.94
                               -0.00-116134.58     -0.00
                                1.94     -0.00 118461.99

     nonloc. stress (kbar)   -152.40      0.00      0.04
                                0.00   -152.42      0.00
                                0.04      0.00   -151.55

     hartree stress (kbar)  56547.38      0.00     -0.70
                                0.00  56545.15     -0.00
                               -0.70     -0.00 -56203.09

     exc-cor stress (kbar)   -891.53      0.00     -0.02
                                0.00   -891.55     -0.00
                               -0.02     -0.00   -924.23

     corecor stress (kbar)      0.00      0.00      0.00
                                0.00      0.00      0.00
                                0.00      0.00      0.00

     ewald   stress (kbar)  57101.04      0.00     -1.20
                                0.00  57098.22     -0.00
                               -1.20     -0.00 -65266.16

     hubbard stress (kbar)      0.00      0.00      0.00
                                0.00      0.00      0.00
                                0.00      0.00      0.00

     london  stress (kbar)      0.00      0.00      0.00
                                0.00      0.00      0.00
                                0.00      0.00      0.00

     XDM     stress (kbar)      0.00      0.00      0.00
                                0.00      0.00      0.00
                                0.00      0.00      0.00

     dft-nl  stress (kbar)      0.00      0.00      0.00
                                0.00      0.00      0.00
                                0.00      0.00      0.00



     Writing output data file g.dos1.save

     init_run     :      8.91s CPU      9.00s WALL (       1 calls)
     electrons    :    286.67s CPU    287.90s WALL (       1 calls)
     forces       :      4.90s CPU      4.92s WALL (       1 calls)
     stress       :     10.88s CPU     10.91s WALL (       1 calls)

     Called by init_run:
     wfcinit      :      7.00s CPU      7.06s WALL (       1 calls)
     potinit      :      0.83s CPU      0.85s WALL (       1 calls)

     Called by electrons:
     c_bands      :    234.98s CPU    235.98s WALL (      13 calls)
     sum_band     :     38.02s CPU     38.21s WALL (      13 calls)
     v_of_rho     :      8.85s CPU      8.89s WALL (      14 calls)
     v_h          :      0.17s CPU      0.17s WALL (      14 calls)
     v_xc         :      8.68s CPU      8.72s WALL (      14 calls)
     newd         :      4.60s CPU      4.60s WALL (      14 calls)
     mix_rho      :      0.65s CPU      0.65s WALL (      13 calls)

     Called by c_bands:
     init_us_2    :      4.78s CPU      4.81s WALL (    4292 calls)
     cegterg      :    227.22s CPU    228.15s WALL (    1924 calls)

     Called by sum_band:
     sum_band:bec :      0.04s CPU      0.04s WALL (    1924 calls)
     addusdens    :      4.92s CPU      4.92s WALL (      13 calls)

     Called by *egterg:
     h_psi        :    137.49s CPU    138.34s WALL (    7767 calls)
     s_psi        :     20.19s CPU     20.24s WALL (    7767 calls)
     g_psi        :      0.94s CPU      0.94s WALL (    5695 calls)
     cdiaghg      :      6.52s CPU      6.54s WALL (    7619 calls)
     cegterg:over :     26.87s CPU     26.89s WALL (    5695 calls)
     cegterg:upda :     16.75s CPU     16.78s WALL (    5695 calls)
     cegterg:last :     10.95s CPU     10.96s WALL (    1976 calls)

     Called by h_psi:
     h_psi:vloc   :     94.35s CPU     95.08s WALL (    7767 calls)
     h_psi:vnl    :     42.41s CPU     42.53s WALL (    7767 calls)
     add_vuspsi   :     20.39s CPU     20.41s WALL (    7767 calls)

     General routines
     calbec       :     32.13s CPU     32.27s WALL (    9987 calls)
     fft          :      4.31s CPU      4.33s WALL (     437 calls)
     ffts         :      0.04s CPU      0.04s WALL (      54 calls)
     fftw         :     80.82s CPU     81.46s WALL (  184310 calls)
     interpolate  :      0.63s CPU      0.63s WALL (      54 calls)

     Parallel routines
     fft_scatter  :     14.25s CPU     14.36s WALL (  184801 calls)

     PWSCF        :  5m12.12s CPU     5m13.65s WALL


   This run was terminated on:   6:32:16   1May2020            

=------------------------------------------------------------------------------=
   JOB DONE.
=------------------------------------------------------------------------------=
