
     Program PWSCF v.5.1 starts on 30Apr2020 at  6:10:18 

     This program is part of the open-source Quantum ESPRESSO suite
     for quantum simulation of materials; please cite
         "P. Giannozzi et al., J. Phys.:Condens. Matter 21 395502 (2009);
          URL http://www.quantum-espresso.org", 
     in publications or presentations arising from this work. More details at
     http://www.quantum-espresso.org/quote

     Parallel version (MPI), running on     1 processors
     Waiting for input...
     Reading input from standard input

     Current dimensions of program PWSCF are:
     Max number of different atomic species (ntypx) = 10
     Max number of k-points (npk) =  40000
     Max angular momentum in pseudopotentials (lmaxx) =  3

     Subspace diagonalization in iterative solution of the eigenvalue problem:
     a serial algorithm will be used


     G-vector sticks info
     --------------------
     sticks:   dense  smooth     PW     G-vecs:    dense   smooth      PW
     Sum         199     199     73                 1893     1893     411



     bravais-lattice index     =            2
     lattice parameter (alat)  =       6.7500  a.u.
     unit-cell volume          =      76.8867 (a.u.)^3
     number of atoms/cell      =            1
     number of atomic types    =            1
     number of electrons       =         3.00
     number of Kohn-Sham states=            6
     kinetic-energy cutoff     =      32.0000  Ry
     charge density cutoff     =     128.0000  Ry
     convergence threshold     =      1.0E-06
     mixing beta               =       0.7000
     number of iterations used =            8  plain     mixing
     Exchange-correlation      =  SLA  PZ   NOGX NOGC ( 1  1  0  0 0)

     celldm(1)=   6.750000  celldm(2)=   0.000000  celldm(3)=   0.000000
     celldm(4)=   0.000000  celldm(5)=   0.000000  celldm(6)=   0.000000

     crystal axes: (cart. coord. in units of alat)
               a(1) = (  -0.500000   0.000000   0.500000 )  
               a(2) = (   0.000000   0.500000   0.500000 )  
               a(3) = (  -0.500000   0.500000   0.000000 )  

     reciprocal axes: (cart. coord. in units 2 pi/alat)
               b(1) = ( -1.000000 -1.000000  1.000000 )  
               b(2) = (  1.000000  1.000000  1.000000 )  
               b(3) = ( -1.000000  1.000000 -1.000000 )  


     PseudoPot. # 1 for Al read from file:
     ../pseudo/Al.pz-vbc.UPF
     MD5 check sum: c34c8b369e81ee50c191f4345b5f621b
     Pseudo is Norm-conserving, Zval =  3.0
     Generated by new atomic code, or converted to UPF format
     Using radial grid of  171 points,  2 beta functions with: 
                l(1) =   0
                l(2) =   1

     atomic species   valence    mass     pseudopotential
        Al             3.00    26.98000     Al( 1.00)

     48 Sym. Ops., with inversion, found



   Cartesian axes

     site n.     atom                  positions (alat units)
         1           Al  tau(   1) = (   0.0000000   0.0000000   0.0000000  )

     number of k points=    28  Marzari-Vanderbilt smearing, width (Ry)=  0.0200
                       cart. coord. in units 2pi/alat
        k(    1) = (  -0.0833333   0.0833333   0.0833333), wk =   0.0185185
        k(    2) = (  -0.2500000   0.2500000  -0.0833333), wk =   0.0555556
        k(    3) = (  -0.4166667   0.4166667  -0.2500000), wk =   0.0555556
        k(    4) = (   0.4166667  -0.4166667   0.5833333), wk =   0.0555556
        k(    5) = (   0.2500000  -0.2500000   0.4166667), wk =   0.0555556
        k(    6) = (   0.0833333  -0.0833333   0.2500000), wk =   0.0555556
        k(    7) = (  -0.0833333   0.4166667   0.0833333), wk =   0.0555556
        k(    8) = (  -0.2500000   0.5833333  -0.0833333), wk =   0.1111111
        k(    9) = (   0.5833333  -0.2500000   0.7500000), wk =   0.1111111
        k(   10) = (   0.4166667  -0.0833333   0.5833333), wk =   0.1111111
        k(   11) = (   0.2500000   0.0833333   0.4166667), wk =   0.1111111
        k(   12) = (  -0.0833333   0.7500000   0.0833333), wk =   0.0555556
        k(   13) = (   0.7500000  -0.0833333   0.9166667), wk =   0.1111111
        k(   14) = (   0.5833333   0.0833333   0.7500000), wk =   0.1111111
        k(   15) = (   0.4166667   0.2500000   0.5833333), wk =   0.1111111
        k(   16) = (  -0.0833333  -0.9166667   0.0833333), wk =   0.0555556
        k(   17) = (  -0.2500000  -0.7500000  -0.0833333), wk =   0.1111111
        k(   18) = (  -0.0833333  -0.5833333   0.0833333), wk =   0.0555556
        k(   19) = (  -0.2500000   0.2500000   0.2500000), wk =   0.0185185
        k(   20) = (  -0.4166667   0.4166667   0.0833333), wk =   0.0555556
        k(   21) = (   0.4166667  -0.4166667   0.9166667), wk =   0.0555556
        k(   22) = (   0.2500000  -0.2500000   0.7500000), wk =   0.0555556
        k(   23) = (  -0.2500000   0.5833333   0.2500000), wk =   0.0555556
        k(   24) = (   0.5833333  -0.2500000   1.0833333), wk =   0.1111111
        k(   25) = (   0.4166667  -0.0833333   0.9166667), wk =   0.1111111
        k(   26) = (  -0.2500000  -1.0833333   0.2500000), wk =   0.0555556
        k(   27) = (  -0.4166667   0.4166667   0.4166667), wk =   0.0185185
        k(   28) = (   0.4166667  -0.4166667   1.2500000), wk =   0.0555556

     Dense  grid:     1893 G-vectors     FFT dimensions: (  18,  18,  18)

     Largest allocated arrays     est. size (Mb)     dimensions
        Kohn-Sham Wavefunctions         0.02 Mb     (     250,    6)
        NL pseudopotentials             0.02 Mb     (     250,    4)
        Each V/rho on FFT grid          0.09 Mb     (    5832)
        Each G-vector array             0.01 Mb     (    1893)
        G-vector shells                 0.00 Mb     (      51)
     Largest temporary arrays     est. size (Mb)     dimensions
        Auxiliary wavefunctions         0.09 Mb     (     250,   24)
        Each subspace H/S matrix        0.01 Mb     (      24,   24)
        Each <psi_i|beta_j> matrix      0.00 Mb     (       4,    6)
        Arrays for rho mixing           0.71 Mb     (    5832,    8)

     Initial potential from superposition of free atoms

     starting charge    2.99794, renormalised to    3.00000
     Starting wfc are    9 randomized atomic wfcs

     total cpu time spent up to now is        0.1 secs

     per-process dynamical memory:     5.7 Mb

     Self-consistent Calculation

     iteration #  1     ecut=    32.00 Ry     beta=0.70
     Davidson diagonalization with overlap
     ethr =  1.00E-02,  avg # of iterations =  3.2

     Threshold (ethr) on eigenvalues was too large:
     Diagonalizing with lowered threshold

     Davidson diagonalization with overlap
     ethr =  2.19E-04,  avg # of iterations =  1.1

     total cpu time spent up to now is        0.3 secs

     total energy              =      -4.15373810 Ry
     Harris-Foulkes estimate   =      -4.15401745 Ry
     estimated scf accuracy    <       0.00658119 Ry

     iteration #  2     ecut=    32.00 Ry     beta=0.70
     Davidson diagonalization with overlap
     ethr =  2.19E-04,  avg # of iterations =  1.0

     total cpu time spent up to now is        0.3 secs

     total energy              =      -4.15383461 Ry
     Harris-Foulkes estimate   =      -4.15375546 Ry
     estimated scf accuracy    <       0.00054764 Ry

     iteration #  3     ecut=    32.00 Ry     beta=0.70
     Davidson diagonalization with overlap
     ethr =  1.83E-05,  avg # of iterations =  1.1

     total cpu time spent up to now is        0.4 secs

     End of self-consistent calculation

          k =-0.0833 0.0833 0.0833 (   250 PWs)   bands (ev):

    -1.6422  24.0046  26.5592  26.5592  30.6183  31.3617

          k =-0.2500 0.2500-0.0833 (   238 PWs)   bands (ev):

    -0.3511  18.6938  22.7015  27.7288  29.9099  31.2454

          k =-0.4167 0.4167-0.2500 (   238 PWs)   bands (ev):

     2.7748  11.6509  22.0245  25.9071  28.0474  28.4741

          k = 0.4167-0.4167 0.5833 (   235 PWs)   bands (ev):

     5.6948   7.7399  22.8440  23.9770  26.5631  29.0482

          k = 0.2500-0.2500 0.4167 (   237 PWs)   bands (ev):

     1.5415  13.8856  23.5027  24.5644  26.7640  31.5871

          k = 0.0833-0.0833 0.2500 (   237 PWs)   bands (ev):

    -0.9934  21.3522  24.4284  25.5883  29.6199  30.7794

          k =-0.0833 0.4167 0.0833 (   233 PWs)   bands (ev):

     0.2860  19.0898  22.5056  23.2821  24.9102  29.0809

          k =-0.2500 0.5833-0.0833 (   234 PWs)   bands (ev):

     2.7762  14.7417  18.6163  21.0611  25.4985  30.3755

          k = 0.5833-0.2500 0.7500 (   237 PWs)   bands (ev):

     6.8324   8.8775  17.3276  20.1118  26.6619  31.3060

          k = 0.4167-0.0833 0.5833 (   237 PWs)   bands (ev):

     3.9855  12.5450  16.7746  21.9422  28.9066  29.8273

          k = 0.2500 0.0833 0.4167 (   233 PWs)   bands (ev):

     0.9167  16.4535  20.6177  25.3427  27.0760  31.4664

          k =-0.0833 0.7500 0.0833 (   233 PWs)   bands (ev):

     4.5865  14.9699  16.3735  20.0974  21.0639  26.7297

          k = 0.7500-0.0833 0.9167 (   233 PWs)   bands (ev):

     7.9764  11.6031  13.3759  18.0093  23.8543  29.0311

          k = 0.5833 0.0833 0.7500 (   235 PWs)   bands (ev):

     7.9573   9.8293  13.9022  19.3779  26.1396  33.7477

          k = 0.4167 0.2500 0.5833 (   239 PWs)   bands (ev):

     4.5777   9.9486  20.1937  22.5168  27.6039  29.2712

          k =-0.0833-0.9167 0.0833 (   229 PWs)   bands (ev):

     7.4278  11.2728  15.7055  19.6228  20.4801  26.1996

          k =-0.2500-0.7500-0.0833 (   233 PWs)   bands (ev):

     5.1754  13.5157  15.5972  18.7542  24.4065  29.4993

          k =-0.0833-0.5833 0.0833 (   230 PWs)   bands (ev):

     2.1629  17.3236  19.4616  21.0554  22.2777  27.7300

          k =-0.2500 0.2500 0.2500 (   238 PWs)   bands (ev):

     0.2854  16.1163  25.4652  25.4652  30.5032  30.5037

          k =-0.4167 0.4167 0.0833 (   233 PWs)   bands (ev):

     2.1613  14.2302  18.5331  25.6313  28.2851  30.1984

          k = 0.4167-0.4167 0.9167 (   234 PWs)   bands (ev):

     5.7512  10.8846  15.1357  22.5766  25.0813  33.6774

          k = 0.2500-0.2500 0.7500 (   236 PWs)   bands (ev):

     5.7528  11.0103  16.4600  21.0711  23.2267  32.4890

          k =-0.2500 0.5833 0.2500 (   234 PWs)   bands (ev):

     3.3838  12.1763  20.6212  22.0363  24.5195  33.2815

          k = 0.5833-0.2500 1.0833 (   236 PWs)   bands (ev):

     6.3302  11.4091  15.1508  18.2042  28.8519  30.8875

          k = 0.4167-0.0833 0.9167 (   235 PWs)   bands (ev):

     9.0215  10.7557  12.8352  16.3738  28.3316  32.5231

          k =-0.2500-1.0833 0.2500 (   229 PWs)   bands (ev):

     8.4701  10.2882  12.9558  20.5936  22.5816  32.0564

          k =-0.4167 0.4167 0.4167 (   235 PWs)   bands (ev):

     3.9821   9.3986  25.2762  25.2762  27.6915  27.6916

          k = 0.4167-0.4167 1.2500 (   238 PWs)   bands (ev):

     6.2656   8.3144  18.7363  23.0452  25.6266  31.0934

     the Fermi energy is    11.6634 ev

!    total energy              =      -4.15383781 Ry
     Harris-Foulkes estimate   =      -4.15383759 Ry
     estimated scf accuracy    <       0.00000024 Ry

     The total energy is the sum of the following terms:

     one-electron contribution =       3.74437288 Ry
     hartree contribution      =       0.02016182 Ry
     xc contribution           =      -1.80512796 Ry
     ewald contribution        =      -6.11314952 Ry
     smearing contrib. (-TS)   =      -0.00009504 Ry

     convergence has been achieved in   3 iterations

     Writing output data file Al_exc1.save

     init_run     :      0.07s CPU      0.07s WALL (       1 calls)
     electrons    :      0.33s CPU      0.34s WALL (       1 calls)

     Called by init_run:
     wfcinit      :      0.05s CPU      0.05s WALL (       1 calls)
     potinit      :      0.00s CPU      0.00s WALL (       1 calls)

     Called by electrons:
     c_bands      :      0.28s CPU      0.28s WALL (       4 calls)
     sum_band     :      0.05s CPU      0.05s WALL (       4 calls)
     v_of_rho     :      0.00s CPU      0.00s WALL (       4 calls)
     mix_rho      :      0.00s CPU      0.00s WALL (       4 calls)

     Called by c_bands:
     init_us_2    :      0.01s CPU      0.01s WALL (     252 calls)
     cegterg      :      0.27s CPU      0.27s WALL (     112 calls)

     Called by *egterg:
     h_psi        :      0.27s CPU      0.28s WALL (     320 calls)
     g_psi        :      0.00s CPU      0.00s WALL (     180 calls)
     cdiaghg      :      0.01s CPU      0.01s WALL (     264 calls)

     Called by h_psi:
     add_vuspsi   :      0.00s CPU      0.00s WALL (     320 calls)

     General routines
     calbec       :      0.00s CPU      0.00s WALL (     320 calls)
     fft          :      0.01s CPU      0.01s WALL (      17 calls)
     fftw         :      0.29s CPU      0.29s WALL (    4338 calls)
     davcio       :      0.00s CPU      0.00s WALL (      28 calls)

     Parallel routines
     fft_scatter  :      0.01s CPU      0.01s WALL (    4355 calls)

     PWSCF        :     0.45s CPU         0.46s WALL


   This run was terminated on:   6:10:18  30Apr2020            

=------------------------------------------------------------------------------=
   JOB DONE.
=------------------------------------------------------------------------------=
