
     Program PWSCF v.5.1 starts on 30Apr2020 at  6:10:18 

     This program is part of the open-source Quantum ESPRESSO suite
     for quantum simulation of materials; please cite
         "P. Giannozzi et al., J. Phys.:Condens. Matter 21 395502 (2009);
          URL http://www.quantum-espresso.org", 
     in publications or presentations arising from this work. More details at
     http://www.quantum-espresso.org/quote

     Parallel version (MPI), running on     1 processors
     Waiting for input...
     Reading input from standard input

     Current dimensions of program PWSCF are:
     Max number of different atomic species (ntypx) = 10
     Max number of k-points (npk) =  40000
     Max angular momentum in pseudopotentials (lmaxx) =  3

     Subspace diagonalization in iterative solution of the eigenvalue problem:
     a serial algorithm will be used


     G-vector sticks info
     --------------------
     sticks:   dense  smooth     PW     G-vecs:    dense   smooth      PW
     Sum         211     211     85                 2085     2085     531



     bravais-lattice index     =            2
     lattice parameter (alat)  =       7.0000  a.u.
     unit-cell volume          =      85.7500 (a.u.)^3
     number of atoms/cell      =            1
     number of atomic types    =            1
     number of electrons       =         3.00
     number of Kohn-Sham states=            6
     kinetic-energy cutoff     =      32.0000  Ry
     charge density cutoff     =     128.0000  Ry
     convergence threshold     =      1.0E-06
     mixing beta               =       0.7000
     number of iterations used =            8  plain     mixing
     Exchange-correlation      =  SLA  PZ   NOGX NOGC ( 1  1  0  0 0)

     celldm(1)=   7.000000  celldm(2)=   0.000000  celldm(3)=   0.000000
     celldm(4)=   0.000000  celldm(5)=   0.000000  celldm(6)=   0.000000

     crystal axes: (cart. coord. in units of alat)
               a(1) = (  -0.500000   0.000000   0.500000 )  
               a(2) = (   0.000000   0.500000   0.500000 )  
               a(3) = (  -0.500000   0.500000   0.000000 )  

     reciprocal axes: (cart. coord. in units 2 pi/alat)
               b(1) = ( -1.000000 -1.000000  1.000000 )  
               b(2) = (  1.000000  1.000000  1.000000 )  
               b(3) = ( -1.000000  1.000000 -1.000000 )  


     PseudoPot. # 1 for Al read from file:
     ../pseudo/Al.pz-vbc.UPF
     MD5 check sum: c34c8b369e81ee50c191f4345b5f621b
     Pseudo is Norm-conserving, Zval =  3.0
     Generated by new atomic code, or converted to UPF format
     Using radial grid of  171 points,  2 beta functions with: 
                l(1) =   0
                l(2) =   1

     atomic species   valence    mass     pseudopotential
        Al             3.00    26.98000     Al( 1.00)

     48 Sym. Ops., with inversion, found



   Cartesian axes

     site n.     atom                  positions (alat units)
         1           Al  tau(   1) = (   0.0000000   0.0000000   0.0000000  )

     number of k points=    28  Marzari-Vanderbilt smearing, width (Ry)=  0.0200
                       cart. coord. in units 2pi/alat
        k(    1) = (  -0.0833333   0.0833333   0.0833333), wk =   0.0185185
        k(    2) = (  -0.2500000   0.2500000  -0.0833333), wk =   0.0555556
        k(    3) = (  -0.4166667   0.4166667  -0.2500000), wk =   0.0555556
        k(    4) = (   0.4166667  -0.4166667   0.5833333), wk =   0.0555556
        k(    5) = (   0.2500000  -0.2500000   0.4166667), wk =   0.0555556
        k(    6) = (   0.0833333  -0.0833333   0.2500000), wk =   0.0555556
        k(    7) = (  -0.0833333   0.4166667   0.0833333), wk =   0.0555556
        k(    8) = (  -0.2500000   0.5833333  -0.0833333), wk =   0.1111111
        k(    9) = (   0.5833333  -0.2500000   0.7500000), wk =   0.1111111
        k(   10) = (   0.4166667  -0.0833333   0.5833333), wk =   0.1111111
        k(   11) = (   0.2500000   0.0833333   0.4166667), wk =   0.1111111
        k(   12) = (  -0.0833333   0.7500000   0.0833333), wk =   0.0555556
        k(   13) = (   0.7500000  -0.0833333   0.9166667), wk =   0.1111111
        k(   14) = (   0.5833333   0.0833333   0.7500000), wk =   0.1111111
        k(   15) = (   0.4166667   0.2500000   0.5833333), wk =   0.1111111
        k(   16) = (  -0.0833333  -0.9166667   0.0833333), wk =   0.0555556
        k(   17) = (  -0.2500000  -0.7500000  -0.0833333), wk =   0.1111111
        k(   18) = (  -0.0833333  -0.5833333   0.0833333), wk =   0.0555556
        k(   19) = (  -0.2500000   0.2500000   0.2500000), wk =   0.0185185
        k(   20) = (  -0.4166667   0.4166667   0.0833333), wk =   0.0555556
        k(   21) = (   0.4166667  -0.4166667   0.9166667), wk =   0.0555556
        k(   22) = (   0.2500000  -0.2500000   0.7500000), wk =   0.0555556
        k(   23) = (  -0.2500000   0.5833333   0.2500000), wk =   0.0555556
        k(   24) = (   0.5833333  -0.2500000   1.0833333), wk =   0.1111111
        k(   25) = (   0.4166667  -0.0833333   0.9166667), wk =   0.1111111
        k(   26) = (  -0.2500000  -1.0833333   0.2500000), wk =   0.0555556
        k(   27) = (  -0.4166667   0.4166667   0.4166667), wk =   0.0185185
        k(   28) = (   0.4166667  -0.4166667   1.2500000), wk =   0.0555556

     Dense  grid:     2085 G-vectors     FFT dimensions: (  18,  18,  18)

     Largest allocated arrays     est. size (Mb)     dimensions
        Kohn-Sham Wavefunctions         0.03 Mb     (     274,    6)
        NL pseudopotentials             0.02 Mb     (     274,    4)
        Each V/rho on FFT grid          0.09 Mb     (    5832)
        Each G-vector array             0.02 Mb     (    2085)
        G-vector shells                 0.00 Mb     (      54)
     Largest temporary arrays     est. size (Mb)     dimensions
        Auxiliary wavefunctions         0.10 Mb     (     274,   24)
        Each subspace H/S matrix        0.01 Mb     (      24,   24)
        Each <psi_i|beta_j> matrix      0.00 Mb     (       4,    6)
        Arrays for rho mixing           0.71 Mb     (    5832,    8)

     Initial potential from superposition of free atoms

     starting charge    2.99794, renormalised to    3.00000
     Starting wfc are    9 randomized atomic wfcs

     total cpu time spent up to now is        0.1 secs

     per-process dynamical memory:     5.9 Mb

     Self-consistent Calculation

     iteration #  1     ecut=    32.00 Ry     beta=0.70
     Davidson diagonalization with overlap
     ethr =  1.00E-02,  avg # of iterations =  3.3

     Threshold (ethr) on eigenvalues was too large:
     Diagonalizing with lowered threshold

     Davidson diagonalization with overlap
     ethr =  2.04E-04,  avg # of iterations =  1.1

     total cpu time spent up to now is        0.3 secs

     total energy              =      -4.17572360 Ry
     Harris-Foulkes estimate   =      -4.17614033 Ry
     estimated scf accuracy    <       0.00613379 Ry

     iteration #  2     ecut=    32.00 Ry     beta=0.70
     Davidson diagonalization with overlap
     ethr =  2.04E-04,  avg # of iterations =  1.0

     total cpu time spent up to now is        0.3 secs

     total energy              =      -4.17577951 Ry
     Harris-Foulkes estimate   =      -4.17574148 Ry
     estimated scf accuracy    <       0.00050280 Ry

     iteration #  3     ecut=    32.00 Ry     beta=0.70
     Davidson diagonalization with overlap
     ethr =  1.68E-05,  avg # of iterations =  1.1

     total cpu time spent up to now is        0.4 secs

     End of self-consistent calculation

          k =-0.0833 0.0833 0.0833 (   271 PWs)   bands (ev):

    -2.1680  21.9784  24.3696  24.3697  27.9342  28.4294

          k =-0.2500 0.2500-0.0833 (   270 PWs)   bands (ev):

    -0.9660  16.9762  20.6174  25.4734  27.3330  28.6233

          k =-0.4167 0.4167-0.2500 (   263 PWs)   bands (ev):

     1.9606  10.3002  20.0296  23.7534  25.4382  25.9243

          k = 0.4167-0.4167 0.5833 (   261 PWs)   bands (ev):

     4.7391   6.5708  20.9067  21.8394  24.0058  26.4339

          k = 0.2500-0.2500 0.4167 (   265 PWs)   bands (ev):

     0.8032  12.4156  21.3556  22.6345  24.1422  28.8578

          k = 0.0833-0.0833 0.2500 (   270 PWs)   bands (ev):

    -1.5646  19.4889  22.2480  23.4618  27.2568  27.7334

          k =-0.0833 0.4167 0.0833 (   272 PWs)   bands (ev):

    -0.3716  17.3800  20.3893  21.3699  22.7447  26.0988

          k =-0.2500 0.5833-0.0833 (   265 PWs)   bands (ev):

     1.9610  13.2656  16.9099  18.9323  23.2544  27.4850

          k = 0.5833-0.2500 0.7500 (   258 PWs)   bands (ev):

     5.8193   7.6525  15.7294  17.9780  24.2379  28.6132

          k = 0.4167-0.0833 0.5833 (   262 PWs)   bands (ev):

     3.1002  11.1774  15.0822  19.8058  26.3292  27.3268

          k = 0.2500 0.0833 0.4167 (   267 PWs)   bands (ev):

     0.2180  14.8706  18.6673  23.1624  24.7069  28.5395

          k =-0.0833 0.7500 0.0833 (   261 PWs)   bands (ev):

     3.6632  13.5324  14.8225  18.0649  19.0666  23.9007

          k = 0.7500-0.0833 0.9167 (   258 PWs)   bands (ev):

     6.8709  10.3709  11.9094  15.9826  21.7098  26.2083

          k = 0.5833 0.0833 0.7500 (   260 PWs)   bands (ev):

     6.8908   8.5797  12.3921  17.3314  23.7525  30.9390

          k = 0.4167 0.2500 0.5833 (   261 PWs)   bands (ev):

     3.6611   8.6886  18.3900  20.3406  25.1057  26.6908

          k =-0.0833-0.9167 0.0833 (   259 PWs)   bands (ev):

     6.3450   9.9994  14.2152  17.6053  18.5156  23.4070

          k =-0.2500-0.7500-0.0833 (   258 PWs)   bands (ev):

     4.2204  12.1359  14.1121  16.6464  22.2299  26.6518

          k =-0.0833-0.5833 0.0833 (   263 PWs)   bands (ev):

     1.3849  15.7434  17.7827  18.9906  20.1974  24.8360

          k =-0.2500 0.2500 0.2500 (   274 PWs)   bands (ev):

    -0.3720  14.5204  23.2502  23.2502  27.8402  27.8408

          k =-0.4167 0.4167 0.0833 (   265 PWs)   bands (ev):

     1.3841  12.7691  16.7006  23.3665  25.7486  27.6890

          k = 0.4167-0.4167 0.9167 (   262 PWs)   bands (ev):

     4.7721   9.5984  13.5225  20.4475  22.6962  30.9004

          k = 0.2500-0.2500 0.7500 (   262 PWs)   bands (ev):

     4.7700   9.7145  14.8480  19.0058  20.9617  29.5786

          k =-0.2500 0.5833 0.2500 (   262 PWs)   bands (ev):

     2.5329  10.8064  18.8554  19.9400  22.1084  30.3270

          k = 0.5833-0.2500 1.0833 (   258 PWs)   bands (ev):

     5.3184  10.1066  13.6890  16.1062  26.3883  28.2029

          k = 0.4167-0.0833 0.9167 (   261 PWs)   bands (ev):

     7.8872   9.5144  11.5139  14.3015  25.9035  29.5835

          k =-0.2500-1.0833 0.2500 (   261 PWs)   bands (ev):

     7.3614   9.0763  11.4402  18.5424  20.3810  29.1688

          k =-0.4167 0.4167 0.4167 (   269 PWs)   bands (ev):

     3.0986   8.1641  23.1888  23.1888  25.0431  25.0432

          k = 0.4167-0.4167 1.2500 (   258 PWs)   bands (ev):

     5.2824   7.1142  16.9727  20.9111  23.1886  28.4100

     the Fermi energy is    10.3845 ev

!    total energy              =      -4.17578238 Ry
     Harris-Foulkes estimate   =      -4.17578220 Ry
     estimated scf accuracy    <       0.00000024 Ry

     The total energy is the sum of the following terms:

     one-electron contribution =       3.44720499 Ry
     hartree contribution      =       0.01578955 Ry
     xc contribution           =      -1.74391029 Ry
     ewald contribution        =      -5.89482276 Ry
     smearing contrib. (-TS)   =      -0.00004387 Ry

     convergence has been achieved in   3 iterations

     Writing output data file Al_exc1.save

     init_run     :      0.07s CPU      0.07s WALL (       1 calls)
     electrons    :      0.33s CPU      0.33s WALL (       1 calls)

     Called by init_run:
     wfcinit      :      0.05s CPU      0.05s WALL (       1 calls)
     potinit      :      0.00s CPU      0.00s WALL (       1 calls)

     Called by electrons:
     c_bands      :      0.28s CPU      0.28s WALL (       4 calls)
     sum_band     :      0.05s CPU      0.05s WALL (       4 calls)
     v_of_rho     :      0.00s CPU      0.00s WALL (       4 calls)
     mix_rho      :      0.00s CPU      0.00s WALL (       4 calls)

     Called by c_bands:
     init_us_2    :      0.01s CPU      0.01s WALL (     252 calls)
     cegterg      :      0.27s CPU      0.27s WALL (     112 calls)

     Called by *egterg:
     h_psi        :      0.27s CPU      0.27s WALL (     324 calls)
     g_psi        :      0.00s CPU      0.00s WALL (     184 calls)
     cdiaghg      :      0.01s CPU      0.01s WALL (     268 calls)

     Called by h_psi:
     add_vuspsi   :      0.00s CPU      0.00s WALL (     324 calls)

     General routines
     calbec       :      0.00s CPU      0.00s WALL (     324 calls)
     fft          :      0.01s CPU      0.01s WALL (      17 calls)
     fftw         :      0.29s CPU      0.29s WALL (    4336 calls)
     davcio       :      0.00s CPU      0.00s WALL (      28 calls)

     Parallel routines
     fft_scatter  :      0.01s CPU      0.01s WALL (    4353 calls)

     PWSCF        :     0.45s CPU         0.46s WALL


   This run was terminated on:   6:10:19  30Apr2020            

=------------------------------------------------------------------------------=
   JOB DONE.
=------------------------------------------------------------------------------=
