
     Program PWSCF v.5.1 starts on 30Apr2020 at  6:10:20 

     This program is part of the open-source Quantum ESPRESSO suite
     for quantum simulation of materials; please cite
         "P. Giannozzi et al., J. Phys.:Condens. Matter 21 395502 (2009);
          URL http://www.quantum-espresso.org", 
     in publications or presentations arising from this work. More details at
     http://www.quantum-espresso.org/quote

     Parallel version (MPI), running on     1 processors
     Waiting for input...
     Reading input from standard input

     Current dimensions of program PWSCF are:
     Max number of different atomic species (ntypx) = 10
     Max number of k-points (npk) =  40000
     Max angular momentum in pseudopotentials (lmaxx) =  3

     Subspace diagonalization in iterative solution of the eigenvalue problem:
     a serial algorithm will be used


     G-vector sticks info
     --------------------
     sticks:   dense  smooth     PW     G-vecs:    dense   smooth      PW
     Sum         283     283     97                 3119     3119     645



     bravais-lattice index     =            2
     lattice parameter (alat)  =       8.0000  a.u.
     unit-cell volume          =     128.0000 (a.u.)^3
     number of atoms/cell      =            1
     number of atomic types    =            1
     number of electrons       =         3.00
     number of Kohn-Sham states=            6
     kinetic-energy cutoff     =      32.0000  Ry
     charge density cutoff     =     128.0000  Ry
     convergence threshold     =      1.0E-06
     mixing beta               =       0.7000
     number of iterations used =            8  plain     mixing
     Exchange-correlation      =  SLA  PZ   NOGX NOGC ( 1  1  0  0 0)

     celldm(1)=   8.000000  celldm(2)=   0.000000  celldm(3)=   0.000000
     celldm(4)=   0.000000  celldm(5)=   0.000000  celldm(6)=   0.000000

     crystal axes: (cart. coord. in units of alat)
               a(1) = (  -0.500000   0.000000   0.500000 )  
               a(2) = (   0.000000   0.500000   0.500000 )  
               a(3) = (  -0.500000   0.500000   0.000000 )  

     reciprocal axes: (cart. coord. in units 2 pi/alat)
               b(1) = ( -1.000000 -1.000000  1.000000 )  
               b(2) = (  1.000000  1.000000  1.000000 )  
               b(3) = ( -1.000000  1.000000 -1.000000 )  


     PseudoPot. # 1 for Al read from file:
     ../pseudo/Al.pz-vbc.UPF
     MD5 check sum: c34c8b369e81ee50c191f4345b5f621b
     Pseudo is Norm-conserving, Zval =  3.0
     Generated by new atomic code, or converted to UPF format
     Using radial grid of  171 points,  2 beta functions with: 
                l(1) =   0
                l(2) =   1

     atomic species   valence    mass     pseudopotential
        Al             3.00    26.98000     Al( 1.00)

     48 Sym. Ops., with inversion, found



   Cartesian axes

     site n.     atom                  positions (alat units)
         1           Al  tau(   1) = (   0.0000000   0.0000000   0.0000000  )

     number of k points=    28  Marzari-Vanderbilt smearing, width (Ry)=  0.0200
                       cart. coord. in units 2pi/alat
        k(    1) = (  -0.0833333   0.0833333   0.0833333), wk =   0.0185185
        k(    2) = (  -0.2500000   0.2500000  -0.0833333), wk =   0.0555556
        k(    3) = (  -0.4166667   0.4166667  -0.2500000), wk =   0.0555556
        k(    4) = (   0.4166667  -0.4166667   0.5833333), wk =   0.0555556
        k(    5) = (   0.2500000  -0.2500000   0.4166667), wk =   0.0555556
        k(    6) = (   0.0833333  -0.0833333   0.2500000), wk =   0.0555556
        k(    7) = (  -0.0833333   0.4166667   0.0833333), wk =   0.0555556
        k(    8) = (  -0.2500000   0.5833333  -0.0833333), wk =   0.1111111
        k(    9) = (   0.5833333  -0.2500000   0.7500000), wk =   0.1111111
        k(   10) = (   0.4166667  -0.0833333   0.5833333), wk =   0.1111111
        k(   11) = (   0.2500000   0.0833333   0.4166667), wk =   0.1111111
        k(   12) = (  -0.0833333   0.7500000   0.0833333), wk =   0.0555556
        k(   13) = (   0.7500000  -0.0833333   0.9166667), wk =   0.1111111
        k(   14) = (   0.5833333   0.0833333   0.7500000), wk =   0.1111111
        k(   15) = (   0.4166667   0.2500000   0.5833333), wk =   0.1111111
        k(   16) = (  -0.0833333  -0.9166667   0.0833333), wk =   0.0555556
        k(   17) = (  -0.2500000  -0.7500000  -0.0833333), wk =   0.1111111
        k(   18) = (  -0.0833333  -0.5833333   0.0833333), wk =   0.0555556
        k(   19) = (  -0.2500000   0.2500000   0.2500000), wk =   0.0185185
        k(   20) = (  -0.4166667   0.4166667   0.0833333), wk =   0.0555556
        k(   21) = (   0.4166667  -0.4166667   0.9166667), wk =   0.0555556
        k(   22) = (   0.2500000  -0.2500000   0.7500000), wk =   0.0555556
        k(   23) = (  -0.2500000   0.5833333   0.2500000), wk =   0.0555556
        k(   24) = (   0.5833333  -0.2500000   1.0833333), wk =   0.1111111
        k(   25) = (   0.4166667  -0.0833333   0.9166667), wk =   0.1111111
        k(   26) = (  -0.2500000  -1.0833333   0.2500000), wk =   0.0555556
        k(   27) = (  -0.4166667   0.4166667   0.4166667), wk =   0.0185185
        k(   28) = (   0.4166667  -0.4166667   1.2500000), wk =   0.0555556

     Dense  grid:     3119 G-vectors     FFT dimensions: (  24,  24,  24)

     Largest allocated arrays     est. size (Mb)     dimensions
        Kohn-Sham Wavefunctions         0.04 Mb     (     398,    6)
        NL pseudopotentials             0.02 Mb     (     398,    4)
        Each V/rho on FFT grid          0.21 Mb     (   13824)
        Each G-vector array             0.02 Mb     (    3119)
        G-vector shells                 0.00 Mb     (      71)
     Largest temporary arrays     est. size (Mb)     dimensions
        Auxiliary wavefunctions         0.15 Mb     (     398,   24)
        Each subspace H/S matrix        0.01 Mb     (      24,   24)
        Each <psi_i|beta_j> matrix      0.00 Mb     (       4,    6)
        Arrays for rho mixing           1.69 Mb     (   13824,    8)

     Initial potential from superposition of free atoms

     starting charge    2.99794, renormalised to    3.00000
     Starting wfc are    9 randomized atomic wfcs

     total cpu time spent up to now is        0.1 secs

     per-process dynamical memory:     7.1 Mb

     Self-consistent Calculation

     iteration #  1     ecut=    32.00 Ry     beta=0.70
     Davidson diagonalization with overlap
     ethr =  1.00E-02,  avg # of iterations =  2.6

     Threshold (ethr) on eigenvalues was too large:
     Diagonalizing with lowered threshold

     Davidson diagonalization with overlap
     ethr =  1.81E-04,  avg # of iterations =  1.6

     total cpu time spent up to now is        0.4 secs

     total energy              =      -4.17920952 Ry
     Harris-Foulkes estimate   =      -4.18009297 Ry
     estimated scf accuracy    <       0.00551736 Ry

     iteration #  2     ecut=    32.00 Ry     beta=0.70
     Davidson diagonalization with overlap
     ethr =  1.84E-04,  avg # of iterations =  1.0

     total cpu time spent up to now is        0.5 secs

     total energy              =      -4.17920977 Ry
     Harris-Foulkes estimate   =      -4.17924981 Ry
     estimated scf accuracy    <       0.00038936 Ry

     iteration #  3     ecut=    32.00 Ry     beta=0.70
     Davidson diagonalization with overlap
     ethr =  1.30E-05,  avg # of iterations =  1.4

     total cpu time spent up to now is        0.6 secs

     End of self-consistent calculation

          k =-0.0833 0.0833 0.0833 (   384 PWs)   bands (ev):

    -3.6222  15.4531  17.2631  17.2633  19.5216  19.5221

          k =-0.2500 0.2500-0.0833 (   383 PWs)   bands (ev):

    -2.7012  11.5193  14.0163  17.8220  19.2874  20.1943

          k =-0.4167 0.4167-0.2500 (   392 PWs)   bands (ev):

    -0.4314   6.1374  13.6095  16.3362  18.0382  18.2366

          k = 0.4167-0.4167 0.5833 (   391 PWs)   bands (ev):

     1.7879   3.1270  14.3916  14.9310  16.6271  18.6609

          k = 0.2500-0.2500 0.4167 (   387 PWs)   bands (ev):

    -1.3337   7.8300  14.5574  15.8400  16.7107  20.5305

          k = 0.0833-0.0833 0.2500 (   379 PWs)   bands (ev):

    -3.1606  13.5090  15.3344  16.6741  18.2684  20.1936

          k =-0.0833 0.4167 0.0833 (   386 PWs)   bands (ev):

    -2.2430  11.8868  13.7802  15.1522  15.7429  17.6550

          k =-0.2500 0.5833-0.0833 (   395 PWs)   bands (ev):

    -0.4298   8.6151  11.2704  12.5156  16.3320  18.9050

          k = 0.5833-0.2500 0.7500 (   391 PWs)   bands (ev):

     2.6705   3.9890  10.4556  11.6509  16.8440  20.3418

          k = 0.4167-0.0833 0.5833 (   393 PWs)   bands (ev):

     0.4658   6.9339   9.6760  13.2718  18.3762  19.5931

          k = 0.2500 0.0833 0.4167 (   384 PWs)   bands (ev):

    -1.7873   9.8687  12.4734  15.9792  17.5173  19.8407

          k =-0.0833 0.7500 0.0833 (   393 PWs)   bands (ev):

     0.9115   8.7910   9.8223  11.8369  13.1428  15.6993

          k = 0.7500-0.0833 0.9167 (   393 PWs)   bands (ev):

     3.5144   6.2810   7.3525  10.0476  15.1154  17.8387

          k = 0.5833 0.0833 0.7500 (   391 PWs)   bands (ev):

     3.5466   4.8065   7.5745  11.2434  16.4710  22.1677

          k = 0.4167 0.2500 0.5833 (   388 PWs)   bands (ev):

     0.9097   4.8512  12.4482  13.6666  17.4982  18.8792

          k =-0.0833-0.9167 0.0833 (   392 PWs)   bands (ev):

     3.0824   5.8458   9.4057  11.4491  12.7092  15.3057

          k =-0.2500-0.7500-0.0833 (   398 PWs)   bands (ev):

     1.3545   7.7740   9.2114  10.4585  15.5253  18.2041

          k =-0.0833-0.5833 0.0833 (   394 PWs)   bands (ev):

    -0.8800  10.6515  12.1101  12.6136  14.0041  16.4719

          k =-0.2500 0.2500 0.2500 (   386 PWs)   bands (ev):

    -2.2437   9.5026  16.0880  16.0880  19.7120  19.7126

          k =-0.4167 0.4167 0.0833 (   394 PWs)   bands (ev):

    -0.8811   8.1995  10.9060  16.0474  18.0713  19.9281

          k = 0.4167-0.4167 0.9167 (   395 PWs)   bands (ev):

     1.7972   5.6600   8.4245  13.7770  15.6199  22.2517

          k = 0.2500-0.2500 0.7500 (   395 PWs)   bands (ev):

     1.7954   5.7045   9.6298  12.6150  14.2904  20.7529

          k =-0.2500 0.5833 0.2500 (   389 PWs)   bands (ev):

     0.0184   6.5586  12.9015  13.3930  15.1127  21.2880

          k = 0.5833-0.2500 1.0833 (   394 PWs)   bands (ev):

     2.2362   6.0852   8.8404  10.0431  18.6618  19.9500

          k = 0.4167-0.0833 0.9167 (   393 PWs)   bands (ev):

     4.3747   5.6592   7.1454   8.4194  18.3334  20.6515

          k =-0.2500-1.0833 0.2500 (   392 PWs)   bands (ev):

     3.9442   5.2751   6.7154  12.2261  13.8690  20.4319

          k =-0.4167 0.4167 0.4167 (   389 PWs)   bands (ev):

     0.4629   4.4244  15.9908  15.9909  17.5875  17.5875

          k = 0.4167-0.4167 1.2500 (   393 PWs)   bands (ev):

     2.2316   3.5570  11.2729  14.1646  15.9928  20.2486

     the Fermi energy is     6.2873 ev

!    total energy              =      -4.17921459 Ry
     Harris-Foulkes estimate   =      -4.17921447 Ry
     estimated scf accuracy    <       0.00000042 Ry

     The total energy is the sum of the following terms:

     one-electron contribution =       2.51220852 Ry
     hartree contribution      =       0.00887379 Ry
     xc contribution           =      -1.54228523 Ry
     ewald contribution        =      -5.15796993 Ry
     smearing contrib. (-TS)   =      -0.00004174 Ry

     convergence has been achieved in   3 iterations

     Writing output data file Al_exc1.save

     init_run     :      0.10s CPU      0.10s WALL (       1 calls)
     electrons    :      0.48s CPU      0.51s WALL (       1 calls)

     Called by init_run:
     wfcinit      :      0.07s CPU      0.07s WALL (       1 calls)
     potinit      :      0.00s CPU      0.00s WALL (       1 calls)

     Called by electrons:
     c_bands      :      0.40s CPU      0.42s WALL (       4 calls)
     sum_band     :      0.08s CPU      0.08s WALL (       4 calls)
     v_of_rho     :      0.00s CPU      0.00s WALL (       4 calls)
     mix_rho      :      0.00s CPU      0.00s WALL (       4 calls)

     Called by c_bands:
     init_us_2    :      0.01s CPU      0.01s WALL (     252 calls)
     cegterg      :      0.39s CPU      0.41s WALL (     112 calls)

     Called by *egterg:
     h_psi        :      0.41s CPU      0.42s WALL (     324 calls)
     g_psi        :      0.00s CPU      0.00s WALL (     184 calls)
     cdiaghg      :      0.01s CPU      0.01s WALL (     268 calls)

     Called by h_psi:
     add_vuspsi   :      0.00s CPU      0.00s WALL (     324 calls)

     General routines
     calbec       :      0.00s CPU      0.00s WALL (     324 calls)
     fft          :      0.01s CPU      0.01s WALL (      17 calls)
     fftw         :      0.42s CPU      0.44s WALL (    4298 calls)
     davcio       :      0.00s CPU      0.00s WALL (      28 calls)

     Parallel routines
     fft_scatter  :      0.02s CPU      0.02s WALL (    4315 calls)

     PWSCF        :     0.63s CPU         0.66s WALL


   This run was terminated on:   6:10:21  30Apr2020            

=------------------------------------------------------------------------------=
   JOB DONE.
=------------------------------------------------------------------------------=
