
     Program PWSCF v.5.1 starts on 30Apr2020 at  6:10:20 

     This program is part of the open-source Quantum ESPRESSO suite
     for quantum simulation of materials; please cite
         "P. Giannozzi et al., J. Phys.:Condens. Matter 21 395502 (2009);
          URL http://www.quantum-espresso.org", 
     in publications or presentations arising from this work. More details at
     http://www.quantum-espresso.org/quote

     Parallel version (MPI), running on     1 processors
     Waiting for input...
     Reading input from standard input

     Current dimensions of program PWSCF are:
     Max number of different atomic species (ntypx) = 10
     Max number of k-points (npk) =  40000
     Max angular momentum in pseudopotentials (lmaxx) =  3

     Subspace diagonalization in iterative solution of the eigenvalue problem:
     a serial algorithm will be used


     G-vector sticks info
     --------------------
     sticks:   dense  smooth     PW     G-vecs:    dense   smooth      PW
     Sum         253     253     91                 2741     2741     609



     bravais-lattice index     =            2
     lattice parameter (alat)  =       7.7500  a.u.
     unit-cell volume          =     116.3711 (a.u.)^3
     number of atoms/cell      =            1
     number of atomic types    =            1
     number of electrons       =         3.00
     number of Kohn-Sham states=            6
     kinetic-energy cutoff     =      32.0000  Ry
     charge density cutoff     =     128.0000  Ry
     convergence threshold     =      1.0E-06
     mixing beta               =       0.7000
     number of iterations used =            8  plain     mixing
     Exchange-correlation      =  SLA  PZ   NOGX NOGC ( 1  1  0  0 0)

     celldm(1)=   7.750000  celldm(2)=   0.000000  celldm(3)=   0.000000
     celldm(4)=   0.000000  celldm(5)=   0.000000  celldm(6)=   0.000000

     crystal axes: (cart. coord. in units of alat)
               a(1) = (  -0.500000   0.000000   0.500000 )  
               a(2) = (   0.000000   0.500000   0.500000 )  
               a(3) = (  -0.500000   0.500000   0.000000 )  

     reciprocal axes: (cart. coord. in units 2 pi/alat)
               b(1) = ( -1.000000 -1.000000  1.000000 )  
               b(2) = (  1.000000  1.000000  1.000000 )  
               b(3) = ( -1.000000  1.000000 -1.000000 )  


     PseudoPot. # 1 for Al read from file:
     ../pseudo/Al.pz-vbc.UPF
     MD5 check sum: c34c8b369e81ee50c191f4345b5f621b
     Pseudo is Norm-conserving, Zval =  3.0
     Generated by new atomic code, or converted to UPF format
     Using radial grid of  171 points,  2 beta functions with: 
                l(1) =   0
                l(2) =   1

     atomic species   valence    mass     pseudopotential
        Al             3.00    26.98000     Al( 1.00)

     48 Sym. Ops., with inversion, found



   Cartesian axes

     site n.     atom                  positions (alat units)
         1           Al  tau(   1) = (   0.0000000   0.0000000   0.0000000  )

     number of k points=    28  Marzari-Vanderbilt smearing, width (Ry)=  0.0200
                       cart. coord. in units 2pi/alat
        k(    1) = (  -0.0833333   0.0833333   0.0833333), wk =   0.0185185
        k(    2) = (  -0.2500000   0.2500000  -0.0833333), wk =   0.0555556
        k(    3) = (  -0.4166667   0.4166667  -0.2500000), wk =   0.0555556
        k(    4) = (   0.4166667  -0.4166667   0.5833333), wk =   0.0555556
        k(    5) = (   0.2500000  -0.2500000   0.4166667), wk =   0.0555556
        k(    6) = (   0.0833333  -0.0833333   0.2500000), wk =   0.0555556
        k(    7) = (  -0.0833333   0.4166667   0.0833333), wk =   0.0555556
        k(    8) = (  -0.2500000   0.5833333  -0.0833333), wk =   0.1111111
        k(    9) = (   0.5833333  -0.2500000   0.7500000), wk =   0.1111111
        k(   10) = (   0.4166667  -0.0833333   0.5833333), wk =   0.1111111
        k(   11) = (   0.2500000   0.0833333   0.4166667), wk =   0.1111111
        k(   12) = (  -0.0833333   0.7500000   0.0833333), wk =   0.0555556
        k(   13) = (   0.7500000  -0.0833333   0.9166667), wk =   0.1111111
        k(   14) = (   0.5833333   0.0833333   0.7500000), wk =   0.1111111
        k(   15) = (   0.4166667   0.2500000   0.5833333), wk =   0.1111111
        k(   16) = (  -0.0833333  -0.9166667   0.0833333), wk =   0.0555556
        k(   17) = (  -0.2500000  -0.7500000  -0.0833333), wk =   0.1111111
        k(   18) = (  -0.0833333  -0.5833333   0.0833333), wk =   0.0555556
        k(   19) = (  -0.2500000   0.2500000   0.2500000), wk =   0.0185185
        k(   20) = (  -0.4166667   0.4166667   0.0833333), wk =   0.0555556
        k(   21) = (   0.4166667  -0.4166667   0.9166667), wk =   0.0555556
        k(   22) = (   0.2500000  -0.2500000   0.7500000), wk =   0.0555556
        k(   23) = (  -0.2500000   0.5833333   0.2500000), wk =   0.0555556
        k(   24) = (   0.5833333  -0.2500000   1.0833333), wk =   0.1111111
        k(   25) = (   0.4166667  -0.0833333   0.9166667), wk =   0.1111111
        k(   26) = (  -0.2500000  -1.0833333   0.2500000), wk =   0.0555556
        k(   27) = (  -0.4166667   0.4166667   0.4166667), wk =   0.0185185
        k(   28) = (   0.4166667  -0.4166667   1.2500000), wk =   0.0555556

     Dense  grid:     2741 G-vectors     FFT dimensions: (  20,  20,  20)

     Largest allocated arrays     est. size (Mb)     dimensions
        Kohn-Sham Wavefunctions         0.03 Mb     (     363,    6)
        NL pseudopotentials             0.02 Mb     (     363,    4)
        Each V/rho on FFT grid          0.12 Mb     (    8000)
        Each G-vector array             0.02 Mb     (    2741)
        G-vector shells                 0.00 Mb     (      66)
     Largest temporary arrays     est. size (Mb)     dimensions
        Auxiliary wavefunctions         0.13 Mb     (     363,   24)
        Each subspace H/S matrix        0.01 Mb     (      24,   24)
        Each <psi_i|beta_j> matrix      0.00 Mb     (       4,    6)
        Arrays for rho mixing           0.98 Mb     (    8000,    8)

     Initial potential from superposition of free atoms

     starting charge    2.99794, renormalised to    3.00000

     negative rho (up, down):  2.628E-05 0.000E+00
     Starting wfc are    9 randomized atomic wfcs

     total cpu time spent up to now is        0.1 secs

     per-process dynamical memory:     6.5 Mb

     Self-consistent Calculation

     iteration #  1     ecut=    32.00 Ry     beta=0.70
     Davidson diagonalization with overlap
     ethr =  1.00E-02,  avg # of iterations =  2.7

     Threshold (ethr) on eigenvalues was too large:
     Diagonalizing with lowered threshold

     Davidson diagonalization with overlap
     ethr =  1.87E-04,  avg # of iterations =  1.6

     negative rho (up, down):  4.764E-06 0.000E+00

     total cpu time spent up to now is        0.2 secs

     total energy              =      -4.18643749 Ry
     Harris-Foulkes estimate   =      -4.18719999 Ry
     estimated scf accuracy    <       0.00566850 Ry

     iteration #  2     ecut=    32.00 Ry     beta=0.70
     Davidson diagonalization with overlap
     ethr =  1.89E-04,  avg # of iterations =  1.0

     total cpu time spent up to now is        0.2 secs

     total energy              =      -4.18644238 Ry
     Harris-Foulkes estimate   =      -4.18646929 Ry
     estimated scf accuracy    <       0.00042273 Ry

     iteration #  3     ecut=    32.00 Ry     beta=0.70
     Davidson diagonalization with overlap
     ethr =  1.41E-05,  avg # of iterations =  1.1

     total cpu time spent up to now is        0.3 secs

     End of self-consistent calculation

          k =-0.0833 0.0833 0.0833 (   335 PWs)   bands (ev):

    -3.3320  16.8922  18.8541  18.8541  21.3541  21.3543

          k =-0.2500 0.2500-0.0833 (   353 PWs)   bands (ev):

    -2.3502  12.7064  15.4451  19.6062  20.9178  22.0223

          k =-0.4167 0.4167-0.2500 (   354 PWs)   bands (ev):

     0.0662   7.0227  15.0135  18.0296  19.5092  19.8369

          k = 0.4167-0.4167 0.5833 (   354 PWs)   bands (ev):

     2.4311   3.8276  15.8693  16.4469  18.1027  20.2675

          k = 0.2500-0.2500 0.4167 (   351 PWs)   bands (ev):

    -0.8938   8.8137  16.0295  17.5423  18.0533  22.2844

          k = 0.0833-0.0833 0.2500 (   345 PWs)   bands (ev):

    -2.8400  14.8199  16.8355  18.1765  20.1814  21.7406

          k =-0.0833 0.4167 0.0833 (   350 PWs)   bands (ev):

    -1.8622  13.0910  15.1980  16.5855  17.2421  19.3024

          k =-0.2500 0.5833-0.0833 (   350 PWs)   bands (ev):

     0.0668   9.6221  12.5334  13.8456  17.7998  20.6783

          k = 0.5833-0.2500 0.7500 (   362 PWs)   bands (ev):

     3.3583   4.7443  11.6430  12.9380  18.4022  22.0942

          k = 0.4167-0.0833 0.5833 (   354 PWs)   bands (ev):

     1.0184   7.8431  10.8480  14.6517  20.0654  21.2381

          k = 0.2500 0.0833 0.4167 (   350 PWs)   bands (ev):

    -1.3768  10.9530  13.8139  17.5870  19.0111  21.6395

          k =-0.0833 0.7500 0.0833 (   350 PWs)   bands (ev):

     1.4888   9.8645  10.9013  13.1553  14.3636  17.3606

          k = 0.7500-0.0833 0.9167 (   360 PWs)   bands (ev):

     4.2288   7.2196   8.2999  11.2569  16.5143  19.5681

          k = 0.5833 0.0833 0.7500 (   363 PWs)   bands (ev):

     4.2807   5.5941   8.6147  12.5030  18.0060  24.0465

          k = 0.4167 0.2500 0.5833 (   357 PWs)   bands (ev):

     1.4910   5.6597  13.7749  15.0692  19.0977  20.5169

          k =-0.0833-0.9167 0.0833 (   352 PWs)   bands (ev):

     3.7729   6.7664  10.4534  12.7487  13.9058  16.9496

          k =-0.2500-0.7500-0.0833 (   352 PWs)   bands (ev):

     1.9589   8.7260  10.3171  11.6995  16.9483  19.9499

          k =-0.0833-0.5833 0.0833 (   349 PWs)   bands (ev):

    -0.4119  11.7733  13.4079  13.9709  15.2680  18.1554

          k =-0.2500 0.2500 0.2500 (   350 PWs)   bands (ev):

    -1.8627  10.5851  17.6656  17.6656  21.4129  21.4144

          k =-0.4167 0.4167 0.0833 (   354 PWs)   bands (ev):

    -0.4125   9.1835  12.1548  17.6549  19.6782  21.5727

          k = 0.4167-0.4167 0.9167 (   359 PWs)   bands (ev):

     2.4308   6.4959   9.5200  15.2102  17.0820  24.0994

          k = 0.2500-0.2500 0.7500 (   354 PWs)   bands (ev):

     2.4272   6.5608  10.7722  13.9766  15.6571  22.6081

          k =-0.2500 0.5833 0.2500 (   356 PWs)   bands (ev):

     0.5434   7.4662  14.2587  14.7968  16.5106  23.1969

          k = 0.5833-0.2500 1.0833 (   360 PWs)   bands (ev):

     2.8936   6.9446   9.9437  11.2415  20.3254  21.6939

          k = 0.4167-0.0833 0.9167 (   361 PWs)   bands (ev):

     5.1358   6.4915   8.1421   9.5527  19.9558  22.5246

          k =-0.2500-1.0833 0.2500 (   362 PWs)   bands (ev):

     4.6827   6.1027   7.7081  13.5674  15.2109  22.2658

          k =-0.4167 0.4167 0.4167 (   353 PWs)   bands (ev):

     1.0180   5.2091  17.6501  17.6501  19.0476  19.0477

          k = 0.4167-0.4167 1.2500 (   361 PWs)   bands (ev):

     2.8979   4.2844  12.5214  15.6227  17.4711  21.9644

     the Fermi energy is     7.1929 ev

!    total energy              =      -4.18644630 Ry
     Harris-Foulkes estimate   =      -4.18644617 Ry
     estimated scf accuracy    <       0.00000037 Ry

     The total energy is the sum of the following terms:

     one-electron contribution =       2.71580468 Ry
     hartree contribution      =       0.00873534 Ry
     xc contribution           =      -1.58666481 Ry
     ewald contribution        =      -5.32435608 Ry
     smearing contrib. (-TS)   =       0.00003458 Ry

     convergence has been achieved in   3 iterations

     Writing output data file Al_exc1.save

     init_run     :      0.05s CPU      0.05s WALL (       1 calls)
     electrons    :      0.19s CPU      0.20s WALL (       1 calls)

     Called by init_run:
     wfcinit      :      0.03s CPU      0.03s WALL (       1 calls)
     potinit      :      0.00s CPU      0.00s WALL (       1 calls)

     Called by electrons:
     c_bands      :      0.16s CPU      0.17s WALL (       4 calls)
     sum_band     :      0.02s CPU      0.03s WALL (       4 calls)
     v_of_rho     :      0.00s CPU      0.00s WALL (       4 calls)
     mix_rho      :      0.00s CPU      0.00s WALL (       4 calls)

     Called by c_bands:
     init_us_2    :      0.01s CPU      0.01s WALL (     252 calls)
     cegterg      :      0.15s CPU      0.16s WALL (     112 calls)

     Called by *egterg:
     h_psi        :      0.13s CPU      0.13s WALL (     320 calls)
     g_psi        :      0.00s CPU      0.00s WALL (     180 calls)
     cdiaghg      :      0.01s CPU      0.01s WALL (     264 calls)

     Called by h_psi:
     add_vuspsi   :      0.00s CPU      0.00s WALL (     320 calls)

     General routines
     calbec       :      0.00s CPU      0.00s WALL (     320 calls)
     fft          :      0.00s CPU      0.00s WALL (      17 calls)
     fftw         :      0.11s CPU      0.11s WALL (    4296 calls)
     davcio       :      0.00s CPU      0.00s WALL (      28 calls)

     Parallel routines
     fft_scatter  :      0.01s CPU      0.02s WALL (    4313 calls)

     PWSCF        :     0.28s CPU         0.30s WALL


   This run was terminated on:   6:10:20  30Apr2020            

=------------------------------------------------------------------------------=
   JOB DONE.
=------------------------------------------------------------------------------=
