
     Program PWSCF v.5.1 starts on 30Apr2020 at  6:10:19 

     This program is part of the open-source Quantum ESPRESSO suite
     for quantum simulation of materials; please cite
         "P. Giannozzi et al., J. Phys.:Condens. Matter 21 395502 (2009);
          URL http://www.quantum-espresso.org", 
     in publications or presentations arising from this work. More details at
     http://www.quantum-espresso.org/quote

     Parallel version (MPI), running on     1 processors
     Waiting for input...
     Reading input from standard input

     Current dimensions of program PWSCF are:
     Max number of different atomic species (ntypx) = 10
     Max number of k-points (npk) =  40000
     Max angular momentum in pseudopotentials (lmaxx) =  3

     Subspace diagonalization in iterative solution of the eigenvalue problem:
     a serial algorithm will be used


     G-vector sticks info
     --------------------
     sticks:   dense  smooth     PW     G-vecs:    dense   smooth      PW
     Sum         253     253     85                 2637     2637     537



     bravais-lattice index     =            2
     lattice parameter (alat)  =       7.5000  a.u.
     unit-cell volume          =     105.4688 (a.u.)^3
     number of atoms/cell      =            1
     number of atomic types    =            1
     number of electrons       =         3.00
     number of Kohn-Sham states=            6
     kinetic-energy cutoff     =      32.0000  Ry
     charge density cutoff     =     128.0000  Ry
     convergence threshold     =      1.0E-06
     mixing beta               =       0.7000
     number of iterations used =            8  plain     mixing
     Exchange-correlation      =  SLA  PZ   NOGX NOGC ( 1  1  0  0 0)

     celldm(1)=   7.500000  celldm(2)=   0.000000  celldm(3)=   0.000000
     celldm(4)=   0.000000  celldm(5)=   0.000000  celldm(6)=   0.000000

     crystal axes: (cart. coord. in units of alat)
               a(1) = (  -0.500000   0.000000   0.500000 )  
               a(2) = (   0.000000   0.500000   0.500000 )  
               a(3) = (  -0.500000   0.500000   0.000000 )  

     reciprocal axes: (cart. coord. in units 2 pi/alat)
               b(1) = ( -1.000000 -1.000000  1.000000 )  
               b(2) = (  1.000000  1.000000  1.000000 )  
               b(3) = ( -1.000000  1.000000 -1.000000 )  


     PseudoPot. # 1 for Al read from file:
     ../pseudo/Al.pz-vbc.UPF
     MD5 check sum: c34c8b369e81ee50c191f4345b5f621b
     Pseudo is Norm-conserving, Zval =  3.0
     Generated by new atomic code, or converted to UPF format
     Using radial grid of  171 points,  2 beta functions with: 
                l(1) =   0
                l(2) =   1

     atomic species   valence    mass     pseudopotential
        Al             3.00    26.98000     Al( 1.00)

     48 Sym. Ops., with inversion, found



   Cartesian axes

     site n.     atom                  positions (alat units)
         1           Al  tau(   1) = (   0.0000000   0.0000000   0.0000000  )

     number of k points=    28  Marzari-Vanderbilt smearing, width (Ry)=  0.0200
                       cart. coord. in units 2pi/alat
        k(    1) = (  -0.0833333   0.0833333   0.0833333), wk =   0.0185185
        k(    2) = (  -0.2500000   0.2500000  -0.0833333), wk =   0.0555556
        k(    3) = (  -0.4166667   0.4166667  -0.2500000), wk =   0.0555556
        k(    4) = (   0.4166667  -0.4166667   0.5833333), wk =   0.0555556
        k(    5) = (   0.2500000  -0.2500000   0.4166667), wk =   0.0555556
        k(    6) = (   0.0833333  -0.0833333   0.2500000), wk =   0.0555556
        k(    7) = (  -0.0833333   0.4166667   0.0833333), wk =   0.0555556
        k(    8) = (  -0.2500000   0.5833333  -0.0833333), wk =   0.1111111
        k(    9) = (   0.5833333  -0.2500000   0.7500000), wk =   0.1111111
        k(   10) = (   0.4166667  -0.0833333   0.5833333), wk =   0.1111111
        k(   11) = (   0.2500000   0.0833333   0.4166667), wk =   0.1111111
        k(   12) = (  -0.0833333   0.7500000   0.0833333), wk =   0.0555556
        k(   13) = (   0.7500000  -0.0833333   0.9166667), wk =   0.1111111
        k(   14) = (   0.5833333   0.0833333   0.7500000), wk =   0.1111111
        k(   15) = (   0.4166667   0.2500000   0.5833333), wk =   0.1111111
        k(   16) = (  -0.0833333  -0.9166667   0.0833333), wk =   0.0555556
        k(   17) = (  -0.2500000  -0.7500000  -0.0833333), wk =   0.1111111
        k(   18) = (  -0.0833333  -0.5833333   0.0833333), wk =   0.0555556
        k(   19) = (  -0.2500000   0.2500000   0.2500000), wk =   0.0185185
        k(   20) = (  -0.4166667   0.4166667   0.0833333), wk =   0.0555556
        k(   21) = (   0.4166667  -0.4166667   0.9166667), wk =   0.0555556
        k(   22) = (   0.2500000  -0.2500000   0.7500000), wk =   0.0555556
        k(   23) = (  -0.2500000   0.5833333   0.2500000), wk =   0.0555556
        k(   24) = (   0.5833333  -0.2500000   1.0833333), wk =   0.1111111
        k(   25) = (   0.4166667  -0.0833333   0.9166667), wk =   0.1111111
        k(   26) = (  -0.2500000  -1.0833333   0.2500000), wk =   0.0555556
        k(   27) = (  -0.4166667   0.4166667   0.4166667), wk =   0.0185185
        k(   28) = (   0.4166667  -0.4166667   1.2500000), wk =   0.0555556

     Dense  grid:     2637 G-vectors     FFT dimensions: (  20,  20,  20)

     Largest allocated arrays     est. size (Mb)     dimensions
        Kohn-Sham Wavefunctions         0.03 Mb     (     328,    6)
        NL pseudopotentials             0.02 Mb     (     328,    4)
        Each V/rho on FFT grid          0.12 Mb     (    8000)
        Each G-vector array             0.02 Mb     (    2637)
        G-vector shells                 0.00 Mb     (      63)
     Largest temporary arrays     est. size (Mb)     dimensions
        Auxiliary wavefunctions         0.12 Mb     (     328,   24)
        Each subspace H/S matrix        0.01 Mb     (      24,   24)
        Each <psi_i|beta_j> matrix      0.00 Mb     (       4,    6)
        Arrays for rho mixing           0.98 Mb     (    8000,    8)

     Initial potential from superposition of free atoms

     starting charge    2.99794, renormalised to    3.00000
     Starting wfc are    9 randomized atomic wfcs

     total cpu time spent up to now is        0.1 secs

     per-process dynamical memory:     6.2 Mb

     Self-consistent Calculation

     iteration #  1     ecut=    32.00 Ry     beta=0.70
     Davidson diagonalization with overlap
     ethr =  1.00E-02,  avg # of iterations =  3.1

     Threshold (ethr) on eigenvalues was too large:
     Diagonalizing with lowered threshold

     Davidson diagonalization with overlap
     ethr =  1.91E-04,  avg # of iterations =  1.1

     total cpu time spent up to now is        0.2 secs

     total energy              =      -4.18956430 Ry
     Harris-Foulkes estimate   =      -4.19020429 Ry
     estimated scf accuracy    <       0.00576487 Ry

     iteration #  2     ecut=    32.00 Ry     beta=0.70
     Davidson diagonalization with overlap
     ethr =  1.92E-04,  avg # of iterations =  1.0

     total cpu time spent up to now is        0.2 secs

     total energy              =      -4.18957818 Ry
     Harris-Foulkes estimate   =      -4.18958915 Ry
     estimated scf accuracy    <       0.00044857 Ry

     iteration #  3     ecut=    32.00 Ry     beta=0.70
     Davidson diagonalization with overlap
     ethr =  1.50E-05,  avg # of iterations =  1.2

     total cpu time spent up to now is        0.2 secs

     End of self-consistent calculation

          k =-0.0833 0.0833 0.0833 (   328 PWs)   bands (ev):

    -2.9999  18.4460  20.5504  20.5506  23.4351  23.4400

          k =-0.2500 0.2500-0.0833 (   319 PWs)   bands (ev):

    -1.9509  14.0015  17.0107  21.4651  22.8052  24.0282

          k =-0.4167 0.4167-0.2500 (   322 PWs)   bands (ev):

     0.6227   8.0028  16.5427  19.8395  21.1956  21.6339

          k = 0.4167-0.4167 0.5833 (   326 PWs)   bands (ev):

     3.1273   4.6281  17.4427  18.0944  19.8017  22.0780

          k = 0.2500-0.2500 0.4167 (   325 PWs)   bands (ev):

    -0.3988   9.8967  17.6414  19.2443  19.7121  24.2385

          k = 0.0833-0.0833 0.2500 (   321 PWs)   bands (ev):

    -2.4739  16.2429  18.4755  19.7871  22.3587  23.4451

          k =-0.0833 0.4167 0.0833 (   321 PWs)   bands (ev):

    -1.4305  14.3985  16.7594  18.0572  18.9321  21.2335

          k =-0.2500 0.5833-0.0833 (   322 PWs)   bands (ev):

     0.6227  10.7234  13.8879  15.3442  19.4294  22.6769

          k = 0.5833-0.2500 0.7500 (   319 PWs)   bands (ev):

     4.1021   5.6000  12.9091  14.4089  20.1380  24.0396

          k = 0.4167-0.0833 0.5833 (   321 PWs)   bands (ev):

     1.6334   8.8441  12.1331  16.1860  21.9388  23.0597

          k = 0.2500 0.0833 0.4167 (   320 PWs)   bands (ev):

    -0.9132  12.1384  15.2837  19.3125  20.6922  23.6642

          k =-0.0833 0.7500 0.0833 (   325 PWs)   bands (ev):

     2.1311  11.0015  12.0928  14.6192  15.7421  19.2569

          k = 0.7500-0.0833 0.9167 (   323 PWs)   bands (ev):

     5.0160   8.2032   9.3749  12.6326  18.0657  21.5172

          k = 0.5833 0.0833 0.7500 (   322 PWs)   bands (ev):

     5.0721   6.4782   9.7598  13.9213  19.7153  26.1194

          k = 0.4167 0.2500 0.5833 (   324 PWs)   bands (ev):

     2.1349   6.5604  15.2003  16.6356  20.8829  22.3456

          k =-0.0833-0.9167 0.0833 (   326 PWs)   bands (ev):

     4.5366   7.7596  11.5995  14.1939  15.2562  18.8236

          k =-0.2500-0.7500-0.0833 (   323 PWs)   bands (ev):

     2.6293   9.7594  11.4940  13.1338  18.5262  21.9171

          k =-0.0833-0.5833 0.0833 (   321 PWs)   bands (ev):

     0.1136  12.9858  14.7797  15.4730  16.7091  20.0863

          k =-0.2500 0.2500 0.2500 (   314 PWs)   bands (ev):

    -1.4306  11.7728  19.3742  19.3742  23.3210  23.3212

          k =-0.4167 0.4167 0.0833 (   323 PWs)   bands (ev):

     0.1134  10.2636  13.5282  19.4006  21.4754  23.4010

          k = 0.4167-0.4167 0.9167 (   327 PWs)   bands (ev):

     3.1290   7.4218  10.7281  16.7874  18.7299  26.1407

          k = 0.2500-0.2500 0.7500 (   318 PWs)   bands (ev):

     3.1248   7.5062  12.0171  15.4827  17.2066  24.6765

          k =-0.2500 0.5833 0.2500 (   321 PWs)   bands (ev):

     1.1293   8.4681  15.6973  16.3435  18.1246  25.3189

          k = 0.5833-0.2500 1.0833 (   324 PWs)   bands (ev):

     3.6176   7.8921  11.1100  12.6397  22.1532  23.6349

          k = 0.4167-0.0833 0.9167 (   322 PWs)   bands (ev):

     5.9634   7.4014   9.1932  10.9024  21.7431  24.6174

          k =-0.2500-1.0833 0.2500 (   324 PWs)   bands (ev):

     5.4870   7.0030   8.8241  15.0540  16.7264  24.3123

          k =-0.4167 0.4167 0.4167 (   323 PWs)   bands (ev):

     1.6339   6.0856  19.4104  19.4104  20.7405  20.7405

          k = 0.4167-0.4167 1.2500 (   324 PWs)   bands (ev):

     3.6184   5.1129  13.8806  17.2217  19.1438  23.8784

     the Fermi energy is     8.1688 ev

!    total energy              =      -4.18958141 Ry
     Harris-Foulkes estimate   =      -4.18958128 Ry
     estimated scf accuracy    <       0.00000031 Ry

     The total energy is the sum of the following terms:

     one-electron contribution =       2.93716550 Ry
     hartree contribution      =       0.00997555 Ry
     xc contribution           =      -1.63495682 Ry
     ewald contribution        =      -5.50183456 Ry
     smearing contrib. (-TS)   =       0.00006891 Ry

     convergence has been achieved in   3 iterations

     Writing output data file Al_exc1.save

     init_run     :      0.05s CPU      0.05s WALL (       1 calls)
     electrons    :      0.17s CPU      0.19s WALL (       1 calls)

     Called by init_run:
     wfcinit      :      0.03s CPU      0.03s WALL (       1 calls)
     potinit      :      0.00s CPU      0.00s WALL (       1 calls)

     Called by electrons:
     c_bands      :      0.14s CPU      0.16s WALL (       4 calls)
     sum_band     :      0.03s CPU      0.03s WALL (       4 calls)
     v_of_rho     :      0.00s CPU      0.00s WALL (       4 calls)
     mix_rho      :      0.00s CPU      0.00s WALL (       4 calls)

     Called by c_bands:
     init_us_2    :      0.01s CPU      0.01s WALL (     252 calls)
     cegterg      :      0.14s CPU      0.15s WALL (     112 calls)

     Called by *egterg:
     h_psi        :      0.12s CPU      0.13s WALL (     321 calls)
     g_psi        :      0.00s CPU      0.00s WALL (     181 calls)
     cdiaghg      :      0.01s CPU      0.01s WALL (     265 calls)

     Called by h_psi:
     add_vuspsi   :      0.00s CPU      0.00s WALL (     321 calls)

     General routines
     calbec       :      0.00s CPU      0.00s WALL (     321 calls)
     fft          :      0.00s CPU      0.00s WALL (      17 calls)
     fftw         :      0.10s CPU      0.11s WALL (    4312 calls)
     davcio       :      0.00s CPU      0.00s WALL (      28 calls)

     Parallel routines
     fft_scatter  :      0.01s CPU      0.02s WALL (    4329 calls)

     PWSCF        :     0.28s CPU         0.29s WALL


   This run was terminated on:   6:10:20  30Apr2020            

=------------------------------------------------------------------------------=
   JOB DONE.
=------------------------------------------------------------------------------=
