
     Program PWSCF v.5.1 starts on 30Apr2020 at  6:10:19 

     This program is part of the open-source Quantum ESPRESSO suite
     for quantum simulation of materials; please cite
         "P. Giannozzi et al., J. Phys.:Condens. Matter 21 395502 (2009);
          URL http://www.quantum-espresso.org", 
     in publications or presentations arising from this work. More details at
     http://www.quantum-espresso.org/quote

     Parallel version (MPI), running on     1 processors
     Waiting for input...
     Reading input from standard input

     Current dimensions of program PWSCF are:
     Max number of different atomic species (ntypx) = 10
     Max number of k-points (npk) =  40000
     Max angular momentum in pseudopotentials (lmaxx) =  3

     Subspace diagonalization in iterative solution of the eigenvalue problem:
     a serial algorithm will be used


     G-vector sticks info
     --------------------
     sticks:   dense  smooth     PW     G-vecs:    dense   smooth      PW
     Sum         235     235     85                 2277     2277     531



     bravais-lattice index     =            2
     lattice parameter (alat)  =       7.2500  a.u.
     unit-cell volume          =      95.2695 (a.u.)^3
     number of atoms/cell      =            1
     number of atomic types    =            1
     number of electrons       =         3.00
     number of Kohn-Sham states=            6
     kinetic-energy cutoff     =      32.0000  Ry
     charge density cutoff     =     128.0000  Ry
     convergence threshold     =      1.0E-06
     mixing beta               =       0.7000
     number of iterations used =            8  plain     mixing
     Exchange-correlation      =  SLA  PZ   NOGX NOGC ( 1  1  0  0 0)

     celldm(1)=   7.250000  celldm(2)=   0.000000  celldm(3)=   0.000000
     celldm(4)=   0.000000  celldm(5)=   0.000000  celldm(6)=   0.000000

     crystal axes: (cart. coord. in units of alat)
               a(1) = (  -0.500000   0.000000   0.500000 )  
               a(2) = (   0.000000   0.500000   0.500000 )  
               a(3) = (  -0.500000   0.500000   0.000000 )  

     reciprocal axes: (cart. coord. in units 2 pi/alat)
               b(1) = ( -1.000000 -1.000000  1.000000 )  
               b(2) = (  1.000000  1.000000  1.000000 )  
               b(3) = ( -1.000000  1.000000 -1.000000 )  


     PseudoPot. # 1 for Al read from file:
     ../pseudo/Al.pz-vbc.UPF
     MD5 check sum: c34c8b369e81ee50c191f4345b5f621b
     Pseudo is Norm-conserving, Zval =  3.0
     Generated by new atomic code, or converted to UPF format
     Using radial grid of  171 points,  2 beta functions with: 
                l(1) =   0
                l(2) =   1

     atomic species   valence    mass     pseudopotential
        Al             3.00    26.98000     Al( 1.00)

     48 Sym. Ops., with inversion, found



   Cartesian axes

     site n.     atom                  positions (alat units)
         1           Al  tau(   1) = (   0.0000000   0.0000000   0.0000000  )

     number of k points=    28  Marzari-Vanderbilt smearing, width (Ry)=  0.0200
                       cart. coord. in units 2pi/alat
        k(    1) = (  -0.0833333   0.0833333   0.0833333), wk =   0.0185185
        k(    2) = (  -0.2500000   0.2500000  -0.0833333), wk =   0.0555556
        k(    3) = (  -0.4166667   0.4166667  -0.2500000), wk =   0.0555556
        k(    4) = (   0.4166667  -0.4166667   0.5833333), wk =   0.0555556
        k(    5) = (   0.2500000  -0.2500000   0.4166667), wk =   0.0555556
        k(    6) = (   0.0833333  -0.0833333   0.2500000), wk =   0.0555556
        k(    7) = (  -0.0833333   0.4166667   0.0833333), wk =   0.0555556
        k(    8) = (  -0.2500000   0.5833333  -0.0833333), wk =   0.1111111
        k(    9) = (   0.5833333  -0.2500000   0.7500000), wk =   0.1111111
        k(   10) = (   0.4166667  -0.0833333   0.5833333), wk =   0.1111111
        k(   11) = (   0.2500000   0.0833333   0.4166667), wk =   0.1111111
        k(   12) = (  -0.0833333   0.7500000   0.0833333), wk =   0.0555556
        k(   13) = (   0.7500000  -0.0833333   0.9166667), wk =   0.1111111
        k(   14) = (   0.5833333   0.0833333   0.7500000), wk =   0.1111111
        k(   15) = (   0.4166667   0.2500000   0.5833333), wk =   0.1111111
        k(   16) = (  -0.0833333  -0.9166667   0.0833333), wk =   0.0555556
        k(   17) = (  -0.2500000  -0.7500000  -0.0833333), wk =   0.1111111
        k(   18) = (  -0.0833333  -0.5833333   0.0833333), wk =   0.0555556
        k(   19) = (  -0.2500000   0.2500000   0.2500000), wk =   0.0185185
        k(   20) = (  -0.4166667   0.4166667   0.0833333), wk =   0.0555556
        k(   21) = (   0.4166667  -0.4166667   0.9166667), wk =   0.0555556
        k(   22) = (   0.2500000  -0.2500000   0.7500000), wk =   0.0555556
        k(   23) = (  -0.2500000   0.5833333   0.2500000), wk =   0.0555556
        k(   24) = (   0.5833333  -0.2500000   1.0833333), wk =   0.1111111
        k(   25) = (   0.4166667  -0.0833333   0.9166667), wk =   0.1111111
        k(   26) = (  -0.2500000  -1.0833333   0.2500000), wk =   0.0555556
        k(   27) = (  -0.4166667   0.4166667   0.4166667), wk =   0.0185185
        k(   28) = (   0.4166667  -0.4166667   1.2500000), wk =   0.0555556

     Dense  grid:     2277 G-vectors     FFT dimensions: (  20,  20,  20)

     Largest allocated arrays     est. size (Mb)     dimensions
        Kohn-Sham Wavefunctions         0.03 Mb     (     297,    6)
        NL pseudopotentials             0.02 Mb     (     297,    4)
        Each V/rho on FFT grid          0.12 Mb     (    8000)
        Each G-vector array             0.02 Mb     (    2277)
        G-vector shells                 0.00 Mb     (      58)
     Largest temporary arrays     est. size (Mb)     dimensions
        Auxiliary wavefunctions         0.11 Mb     (     297,   24)
        Each subspace H/S matrix        0.01 Mb     (      24,   24)
        Each <psi_i|beta_j> matrix      0.00 Mb     (       4,    6)
        Arrays for rho mixing           0.98 Mb     (    8000,    8)

     Initial potential from superposition of free atoms

     starting charge    2.99794, renormalised to    3.00000
     Starting wfc are    9 randomized atomic wfcs

     total cpu time spent up to now is        0.1 secs

     per-process dynamical memory:     6.1 Mb

     Self-consistent Calculation

     iteration #  1     ecut=    32.00 Ry     beta=0.70
     Davidson diagonalization with overlap
     ethr =  1.00E-02,  avg # of iterations =  3.2

     Threshold (ethr) on eigenvalues was too large:
     Diagonalizing with lowered threshold

     Davidson diagonalization with overlap
     ethr =  1.95E-04,  avg # of iterations =  1.1

     total cpu time spent up to now is        0.2 secs

     total energy              =      -4.18674139 Ry
     Harris-Foulkes estimate   =      -4.18725510 Ry
     estimated scf accuracy    <       0.00589227 Ry

     iteration #  2     ecut=    32.00 Ry     beta=0.70
     Davidson diagonalization with overlap
     ethr =  1.96E-04,  avg # of iterations =  1.0

     total cpu time spent up to now is        0.2 secs

     total energy              =      -4.18677371 Ry
     Harris-Foulkes estimate   =      -4.18676178 Ry
     estimated scf accuracy    <       0.00047260 Ry

     iteration #  3     ecut=    32.00 Ry     beta=0.70
     Davidson diagonalization with overlap
     ethr =  1.58E-05,  avg # of iterations =  1.3

     total cpu time spent up to now is        0.2 secs

     End of self-consistent calculation

          k =-0.0833 0.0833 0.0833 (   295 PWs)   bands (ev):

    -2.6154  20.1345  22.3783  22.3785  25.7939  25.7942

          k =-0.2500 0.2500-0.0833 (   296 PWs)   bands (ev):

    -1.4938  15.4190  18.7284  23.4044  24.9563  26.2233

          k =-0.4167 0.4167-0.2500 (   293 PWs)   bands (ev):

     1.2494   9.0902  18.2093  21.7456  23.1582  23.6535

          k = 0.4167-0.4167 0.5833 (   287 PWs)   bands (ev):

     3.8907   5.5388  19.1161  19.8864  21.7601  24.1226

          k = 0.2500-0.2500 0.4167 (   296 PWs)   bands (ev):

     0.1623  11.0922  19.4101  20.8826  21.7865  26.4198

          k = 0.0833-0.0833 0.2500 (   297 PWs)   bands (ev):

    -2.0529  17.7931  20.2723  21.5387  24.7892  25.3545

          k =-0.0833 0.4167 0.0833 (   297 PWs)   bands (ev):

    -0.9381  15.8227  18.4826  19.6381  20.7639  23.4904

          k =-0.2500 0.5833-0.0833 (   293 PWs)   bands (ev):

     1.2494  11.9325  15.3414  17.0333  21.2403  24.9328

          k = 0.5833-0.2500 0.7500 (   288 PWs)   bands (ev):

     4.9163   6.5653  14.2646  16.0833  22.0740  26.2026

          k = 0.4167-0.0833 0.5833 (   289 PWs)   bands (ev):

     2.3224   9.9502  13.5405  17.8960  24.0178  25.0810

          k = 0.2500 0.0833 0.4167 (   295 PWs)   bands (ev):

    -0.3861  13.4387  16.8959  21.1637  22.5846  25.9518

          k =-0.0833 0.7500 0.0833 (   295 PWs)   bands (ev):

     2.8509  12.2173  13.3987  16.2479  17.3017  21.4239

          k = 0.7500-0.0833 0.9167 (   290 PWs)   bands (ev):

     5.8909   9.2459  10.5780  14.1993  19.7896  23.7179

          k = 0.5833 0.0833 0.7500 (   286 PWs)   bands (ev):

     5.9361   7.4688  11.0158  15.5220  21.6219  28.4072

          k = 0.4167 0.2500 0.5833 (   291 PWs)   bands (ev):

     2.8532   7.5651  16.7332  18.3865  22.8764  24.3935

          k =-0.0833-0.9167 0.0833 (   297 PWs)   bands (ev):

     5.3881   8.8334  12.8506  15.8048  16.7841  20.9629

          k =-0.2500-0.7500-0.0833 (   292 PWs)   bands (ev):

     3.3779  10.8904  12.7523  14.7785  20.2790  24.1384

          k =-0.0833-0.5833 0.0833 (   297 PWs)   bands (ev):

     0.7079  14.3037  16.2314  17.1388  18.3468  22.3002

          k =-0.2500 0.2500 0.2500 (   296 PWs)   bands (ev):

    -0.9384  13.0792  21.2287  21.2288  25.4551  25.4554

          k =-0.4167 0.4167 0.0833 (   295 PWs)   bands (ev):

     0.7076  11.4534  15.0383  21.2980  23.4892  25.4322

          k = 0.4167-0.4167 0.9167 (   289 PWs)   bands (ev):

     3.9043   8.4507  12.0585  18.5262  20.5911  28.3991

          k = 0.2500-0.2500 0.7500 (   290 PWs)   bands (ev):

     3.9004   8.5525  13.3721  17.1517  18.9653  26.9880

          k =-0.2500 0.5833 0.2500 (   289 PWs)   bands (ev):

     1.7878   9.5764  17.2233  18.0509  19.9833  27.6839

          k = 0.5833-0.2500 1.0833 (   290 PWs)   bands (ev):

     4.4205   8.9407  12.3509  14.2569  24.1657  25.7956

          k = 0.4167-0.0833 0.9167 (   287 PWs)   bands (ev):

     6.8745   8.4032  10.3091  12.4825  23.7172  26.9606

          k =-0.2500-1.0833 0.2500 (   286 PWs)   bands (ev):

     6.3738   7.9884  10.0664  16.7049  18.4403  26.6013

          k =-0.4167 0.4167 0.4167 (   284 PWs)   bands (ev):

     2.3226   7.0659  21.2507  21.2507  22.7288  22.7289

          k = 0.4167-0.4167 1.2500 (   290 PWs)   bands (ev):

     4.4072   6.0522  15.3600  18.9780  21.0390  26.0169

     the Fermi energy is     9.2267 ev

!    total energy              =      -4.18677660 Ry
     Harris-Foulkes estimate   =      -4.18677644 Ry
     estimated scf accuracy    <       0.00000027 Ry

     The total energy is the sum of the following terms:

     one-electron contribution =       3.17966654 Ry
     hartree contribution      =       0.01237164 Ry
     xc contribution           =      -1.68729487 Ry
     ewald contribution        =      -5.69155304 Ry
     smearing contrib. (-TS)   =       0.00003314 Ry

     convergence has been achieved in   3 iterations

     Writing output data file Al_exc1.save

     init_run     :      0.05s CPU      0.05s WALL (       1 calls)
     electrons    :      0.17s CPU      0.18s WALL (       1 calls)

     Called by init_run:
     wfcinit      :      0.03s CPU      0.03s WALL (       1 calls)
     potinit      :      0.00s CPU      0.00s WALL (       1 calls)

     Called by electrons:
     c_bands      :      0.13s CPU      0.15s WALL (       4 calls)
     sum_band     :      0.03s CPU      0.03s WALL (       4 calls)
     v_of_rho     :      0.00s CPU      0.00s WALL (       4 calls)
     mix_rho      :      0.00s CPU      0.00s WALL (       4 calls)

     Called by c_bands:
     init_us_2    :      0.01s CPU      0.01s WALL (     252 calls)
     cegterg      :      0.13s CPU      0.15s WALL (     112 calls)

     Called by *egterg:
     h_psi        :      0.11s CPU      0.13s WALL (     324 calls)
     g_psi        :      0.00s CPU      0.00s WALL (     184 calls)
     cdiaghg      :      0.01s CPU      0.01s WALL (     268 calls)

     Called by h_psi:
     add_vuspsi   :      0.00s CPU      0.00s WALL (     324 calls)

     General routines
     calbec       :      0.00s CPU      0.00s WALL (     324 calls)
     fft          :      0.00s CPU      0.00s WALL (      17 calls)
     fftw         :      0.10s CPU      0.11s WALL (    4314 calls)
     davcio       :      0.00s CPU      0.00s WALL (      28 calls)

     Parallel routines
     fft_scatter  :      0.01s CPU      0.02s WALL (    4331 calls)

     PWSCF        :     0.27s CPU         0.29s WALL


   This run was terminated on:   6:10:19  30Apr2020            

=------------------------------------------------------------------------------=
   JOB DONE.
=------------------------------------------------------------------------------=
