
     Program PWSCF v.5.1 starts on 30Apr2020 at  6:10:21 

     This program is part of the open-source Quantum ESPRESSO suite
     for quantum simulation of materials; please cite
         "P. Giannozzi et al., J. Phys.:Condens. Matter 21 395502 (2009);
          URL http://www.quantum-espresso.org", 
     in publications or presentations arising from this work. More details at
     http://www.quantum-espresso.org/quote

     Parallel version (MPI), running on     1 processors
     Waiting for input...
     Reading input from standard input

     Current dimensions of program PWSCF are:
     Max number of different atomic species (ntypx) = 10
     Max number of k-points (npk) =  40000
     Max angular momentum in pseudopotentials (lmaxx) =  3

     Subspace diagonalization in iterative solution of the eigenvalue problem:
     a serial algorithm will be used


     G-vector sticks info
     --------------------
     sticks:   dense  smooth     PW     G-vecs:    dense   smooth      PW
     Sum         313     313    109                 3719     3719     749



     bravais-lattice index     =            2
     lattice parameter (alat)  =       8.5000  a.u.
     unit-cell volume          =     153.5312 (a.u.)^3
     number of atoms/cell      =            1
     number of atomic types    =            1
     number of electrons       =         3.00
     number of Kohn-Sham states=            6
     kinetic-energy cutoff     =      32.0000  Ry
     charge density cutoff     =     128.0000  Ry
     convergence threshold     =      1.0E-06
     mixing beta               =       0.7000
     number of iterations used =            8  plain     mixing
     Exchange-correlation      =  SLA  PZ   NOGX NOGC ( 1  1  0  0 0)

     celldm(1)=   8.500000  celldm(2)=   0.000000  celldm(3)=   0.000000
     celldm(4)=   0.000000  celldm(5)=   0.000000  celldm(6)=   0.000000

     crystal axes: (cart. coord. in units of alat)
               a(1) = (  -0.500000   0.000000   0.500000 )  
               a(2) = (   0.000000   0.500000   0.500000 )  
               a(3) = (  -0.500000   0.500000   0.000000 )  

     reciprocal axes: (cart. coord. in units 2 pi/alat)
               b(1) = ( -1.000000 -1.000000  1.000000 )  
               b(2) = (  1.000000  1.000000  1.000000 )  
               b(3) = ( -1.000000  1.000000 -1.000000 )  


     PseudoPot. # 1 for Al read from file:
     ../pseudo/Al.pz-vbc.UPF
     MD5 check sum: c34c8b369e81ee50c191f4345b5f621b
     Pseudo is Norm-conserving, Zval =  3.0
     Generated by new atomic code, or converted to UPF format
     Using radial grid of  171 points,  2 beta functions with: 
                l(1) =   0
                l(2) =   1

     atomic species   valence    mass     pseudopotential
        Al             3.00    26.98000     Al( 1.00)

     48 Sym. Ops., with inversion, found



   Cartesian axes

     site n.     atom                  positions (alat units)
         1           Al  tau(   1) = (   0.0000000   0.0000000   0.0000000  )

     number of k points=    28  Marzari-Vanderbilt smearing, width (Ry)=  0.0200
                       cart. coord. in units 2pi/alat
        k(    1) = (  -0.0833333   0.0833333   0.0833333), wk =   0.0185185
        k(    2) = (  -0.2500000   0.2500000  -0.0833333), wk =   0.0555556
        k(    3) = (  -0.4166667   0.4166667  -0.2500000), wk =   0.0555556
        k(    4) = (   0.4166667  -0.4166667   0.5833333), wk =   0.0555556
        k(    5) = (   0.2500000  -0.2500000   0.4166667), wk =   0.0555556
        k(    6) = (   0.0833333  -0.0833333   0.2500000), wk =   0.0555556
        k(    7) = (  -0.0833333   0.4166667   0.0833333), wk =   0.0555556
        k(    8) = (  -0.2500000   0.5833333  -0.0833333), wk =   0.1111111
        k(    9) = (   0.5833333  -0.2500000   0.7500000), wk =   0.1111111
        k(   10) = (   0.4166667  -0.0833333   0.5833333), wk =   0.1111111
        k(   11) = (   0.2500000   0.0833333   0.4166667), wk =   0.1111111
        k(   12) = (  -0.0833333   0.7500000   0.0833333), wk =   0.0555556
        k(   13) = (   0.7500000  -0.0833333   0.9166667), wk =   0.1111111
        k(   14) = (   0.5833333   0.0833333   0.7500000), wk =   0.1111111
        k(   15) = (   0.4166667   0.2500000   0.5833333), wk =   0.1111111
        k(   16) = (  -0.0833333  -0.9166667   0.0833333), wk =   0.0555556
        k(   17) = (  -0.2500000  -0.7500000  -0.0833333), wk =   0.1111111
        k(   18) = (  -0.0833333  -0.5833333   0.0833333), wk =   0.0555556
        k(   19) = (  -0.2500000   0.2500000   0.2500000), wk =   0.0185185
        k(   20) = (  -0.4166667   0.4166667   0.0833333), wk =   0.0555556
        k(   21) = (   0.4166667  -0.4166667   0.9166667), wk =   0.0555556
        k(   22) = (   0.2500000  -0.2500000   0.7500000), wk =   0.0555556
        k(   23) = (  -0.2500000   0.5833333   0.2500000), wk =   0.0555556
        k(   24) = (   0.5833333  -0.2500000   1.0833333), wk =   0.1111111
        k(   25) = (   0.4166667  -0.0833333   0.9166667), wk =   0.1111111
        k(   26) = (  -0.2500000  -1.0833333   0.2500000), wk =   0.0555556
        k(   27) = (  -0.4166667   0.4166667   0.4166667), wk =   0.0185185
        k(   28) = (   0.4166667  -0.4166667   1.2500000), wk =   0.0555556

     Dense  grid:     3719 G-vectors     FFT dimensions: (  24,  24,  24)

     Largest allocated arrays     est. size (Mb)     dimensions
        Kohn-Sham Wavefunctions         0.05 Mb     (     495,    6)
        NL pseudopotentials             0.03 Mb     (     495,    4)
        Each V/rho on FFT grid          0.21 Mb     (   13824)
        Each G-vector array             0.03 Mb     (    3719)
        G-vector shells                 0.00 Mb     (      80)
     Largest temporary arrays     est. size (Mb)     dimensions
        Auxiliary wavefunctions         0.18 Mb     (     495,   24)
        Each subspace H/S matrix        0.01 Mb     (      24,   24)
        Each <psi_i|beta_j> matrix      0.00 Mb     (       4,    6)
        Arrays for rho mixing           1.69 Mb     (   13824,    8)

     Initial potential from superposition of free atoms

     starting charge    2.99794, renormalised to    3.00000

     negative rho (up, down):  3.064E-06 0.000E+00
     Starting wfc are    9 randomized atomic wfcs

     total cpu time spent up to now is        0.1 secs

     per-process dynamical memory:     7.5 Mb

     Self-consistent Calculation

     iteration #  1     ecut=    32.00 Ry     beta=0.70
     Davidson diagonalization with overlap
     ethr =  1.00E-02,  avg # of iterations =  2.2

     Threshold (ethr) on eigenvalues was too large:
     Diagonalizing with lowered threshold

     Davidson diagonalization with overlap
     ethr =  1.68E-04,  avg # of iterations =  1.7

     total cpu time spent up to now is        0.4 secs

     total energy              =      -4.15806954 Ry
     Harris-Foulkes estimate   =      -4.15903387 Ry
     estimated scf accuracy    <       0.00492630 Ry

     iteration #  2     ecut=    32.00 Ry     beta=0.70
     Davidson diagonalization with overlap
     ethr =  1.64E-04,  avg # of iterations =  1.0

     total cpu time spent up to now is        0.5 secs

     total energy              =      -4.15809525 Ry
     Harris-Foulkes estimate   =      -4.15813858 Ry
     estimated scf accuracy    <       0.00030049 Ry

     iteration #  3     ecut=    32.00 Ry     beta=0.70
     Davidson diagonalization with overlap
     ethr =  1.00E-05,  avg # of iterations =  1.5

     total cpu time spent up to now is        0.6 secs

     End of self-consistent calculation

          k =-0.0833 0.0833 0.0833 (   495 PWs)   bands (ev):

    -4.0986  12.8728  14.3478  14.3479  16.5320  16.5322

          k =-0.2500 0.2500-0.0833 (   477 PWs)   bands (ev):

    -3.2860   9.4232  11.5206  14.5880  16.6021  17.0271

          k =-0.4167 0.4167-0.2500 (   469 PWs)   bands (ev):

    -1.2826   4.6128  11.1397  13.3455  15.5313  15.5631

          k = 0.4167-0.4167 0.5833 (   466 PWs)   bands (ev):

     0.6271   1.9878  11.7424  12.2595  14.1946  15.9545

          k = 0.2500-0.2500 0.4167 (   473 PWs)   bands (ev):

    -2.0786   6.1204  11.9814  12.8473  14.4375  17.5392

          k = 0.0833-0.0833 0.2500 (   476 PWs)   bands (ev):

    -3.6914  11.1777  12.6958  13.8752  15.2110  17.5018

          k =-0.0833 0.4167 0.0833 (   478 PWs)   bands (ev):

    -2.8810   9.7453  11.3170  12.3390  13.3781  14.9985

          k =-0.2500 0.5833-0.0833 (   466 PWs)   bands (ev):

    -1.2771   6.8409   9.0244  10.2662  13.8206  15.9195

          k = 0.5833-0.2500 0.7500 (   468 PWs)   bands (ev):

     1.4226   2.7454   8.3207   9.5200  14.1838  17.3289

          k = 0.4167-0.0833 0.5833 (   471 PWs)   bands (ev):

    -0.4865   5.3499   7.6436  10.9024  15.4773  16.7580

          k = 0.2500 0.0833 0.4167 (   476 PWs)   bands (ev):

    -2.4787   7.9599  10.1390  13.1155  14.9885  16.8036

          k =-0.0833 0.7500 0.0833 (   465 PWs)   bands (ev):

    -0.0833   6.8176   7.9786   9.5736  11.0944  12.9623

          k = 0.7500-0.0833 0.9167 (   468 PWs)   bands (ev):

     2.2517   4.5526   5.7950   8.0372  12.7110  14.9316

          k = 0.5833 0.0833 0.7500 (   465 PWs)   bands (ev):

     2.2039   3.4891   5.7883   9.1181  13.8477  18.9126

          k = 0.4167 0.2500 0.5833 (   465 PWs)   bands (ev):

    -0.1015   3.4737  10.0837  11.2641  14.7815  16.0830

          k =-0.0833-0.9167 0.0833 (   462 PWs)   bands (ev):

     1.8721   4.2132   7.5842   9.2238  10.6964  12.5917

          k =-0.2500-0.7500-0.0833 (   468 PWs)   bands (ev):

     0.3072   6.0615   7.2446   8.4472  13.0812  15.2681

          k =-0.0833-0.5833 0.0833 (   465 PWs)   bands (ev):

    -1.6745   8.6284   9.7723  10.2725  11.9099  13.7151

          k =-0.2500 0.2500 0.2500 (   483 PWs)   bands (ev):

    -2.8823   7.6109  13.2865  13.2865  16.2334  16.8369

          k =-0.4167 0.4167 0.0833 (   473 PWs)   bands (ev):

    -1.6779   6.4777   8.7441  13.2079  15.3437  17.1134

          k = 0.4167-0.4167 0.9167 (   467 PWs)   bands (ev):

     0.6867   4.2196   6.5409  11.2863  13.1608  19.0652

          k = 0.2500-0.2500 0.7500 (   464 PWs)   bands (ev):

     0.6911   4.2245   7.6333  10.2655  12.0121  17.5815

          k =-0.2500 0.5833 0.2500 (   462 PWs)   bands (ev):

    -0.8827   4.9873  10.4518  10.9577  12.8276  18.0051

          k = 0.5833-0.2500 1.0833 (   470 PWs)   bands (ev):

     1.0814   4.5910   6.8532   8.1162  15.7654  16.9697

          k = 0.4167-0.0833 0.9167 (   467 PWs)   bands (ev):

     2.9840   4.1939   5.3793   6.6586  15.5165  17.4690

          k =-0.2500-1.0833 0.2500 (   471 PWs)   bands (ev):

     2.6003   3.8219   5.0779   9.9176  11.6185  17.3016

          k =-0.4167 0.4167 0.4167 (   471 PWs)   bands (ev):

    -0.4995   3.0934  13.0489  13.0489  15.1531  15.1534

          k = 0.4167-0.4167 1.2500 (   464 PWs)   bands (ev):

     1.0252   2.3681   9.0799  11.6199  13.5182  17.3219

     the Fermi energy is     4.6769 ev

!    total energy              =      -4.15810206 Ry
     Harris-Foulkes estimate   =      -4.15810192 Ry
     estimated scf accuracy    <       0.00000048 Ry

     The total energy is the sum of the following terms:

     one-electron contribution =       2.14690462 Ry
     hartree contribution      =       0.01443106 Ry
     xc contribution           =      -1.46497525 Ry
     ewald contribution        =      -4.85455994 Ry
     smearing contrib. (-TS)   =       0.00009745 Ry

     convergence has been achieved in   3 iterations

     Writing output data file Al_exc1.save

     init_run     :      0.11s CPU      0.11s WALL (       1 calls)
     electrons    :      0.49s CPU      0.51s WALL (       1 calls)

     Called by init_run:
     wfcinit      :      0.08s CPU      0.08s WALL (       1 calls)
     potinit      :      0.00s CPU      0.00s WALL (       1 calls)

     Called by electrons:
     c_bands      :      0.40s CPU      0.42s WALL (       4 calls)
     sum_band     :      0.09s CPU      0.09s WALL (       4 calls)
     v_of_rho     :      0.00s CPU      0.00s WALL (       4 calls)
     mix_rho      :      0.00s CPU      0.00s WALL (       4 calls)

     Called by c_bands:
     init_us_2    :      0.01s CPU      0.01s WALL (     252 calls)
     cegterg      :      0.39s CPU      0.41s WALL (     112 calls)

     Called by *egterg:
     h_psi        :      0.40s CPU      0.42s WALL (     320 calls)
     g_psi        :      0.00s CPU      0.00s WALL (     180 calls)
     cdiaghg      :      0.01s CPU      0.01s WALL (     264 calls)

     Called by h_psi:
     add_vuspsi   :      0.00s CPU      0.00s WALL (     320 calls)

     General routines
     calbec       :      0.00s CPU      0.01s WALL (     320 calls)
     fft          :      0.01s CPU      0.01s WALL (      17 calls)
     fftw         :      0.42s CPU      0.43s WALL (    4230 calls)
     davcio       :      0.00s CPU      0.00s WALL (      28 calls)

     Parallel routines
     fft_scatter  :      0.02s CPU      0.03s WALL (    4247 calls)

     PWSCF        :     0.65s CPU         0.67s WALL


   This run was terminated on:   6:10:21  30Apr2020            

=------------------------------------------------------------------------------=
   JOB DONE.
=------------------------------------------------------------------------------=
