
     Program PWSCF v.5.1 starts on 30Apr2020 at  6:10:17 

     This program is part of the open-source Quantum ESPRESSO suite
     for quantum simulation of materials; please cite
         "P. Giannozzi et al., J. Phys.:Condens. Matter 21 395502 (2009);
          URL http://www.quantum-espresso.org", 
     in publications or presentations arising from this work. More details at
     http://www.quantum-espresso.org/quote

     Parallel version (MPI), running on     1 processors
     Waiting for input...
     Reading input from standard input

     Current dimensions of program PWSCF are:
     Max number of different atomic species (ntypx) = 10
     Max number of k-points (npk) =  40000
     Max angular momentum in pseudopotentials (lmaxx) =  3

     Subspace diagonalization in iterative solution of the eigenvalue problem:
     a serial algorithm will be used


     G-vector sticks info
     --------------------
     sticks:   dense  smooth     PW     G-vecs:    dense   smooth      PW
     Sum         187     187     73                 1687     1687     411



     bravais-lattice index     =            2
     lattice parameter (alat)  =       6.5000  a.u.
     unit-cell volume          =      68.6562 (a.u.)^3
     number of atoms/cell      =            1
     number of atomic types    =            1
     number of electrons       =         3.00
     number of Kohn-Sham states=            6
     kinetic-energy cutoff     =      32.0000  Ry
     charge density cutoff     =     128.0000  Ry
     convergence threshold     =      1.0E-06
     mixing beta               =       0.7000
     number of iterations used =            8  plain     mixing
     Exchange-correlation      =  SLA  PZ   NOGX NOGC ( 1  1  0  0 0)

     celldm(1)=   6.500000  celldm(2)=   0.000000  celldm(3)=   0.000000
     celldm(4)=   0.000000  celldm(5)=   0.000000  celldm(6)=   0.000000

     crystal axes: (cart. coord. in units of alat)
               a(1) = (  -0.500000   0.000000   0.500000 )  
               a(2) = (   0.000000   0.500000   0.500000 )  
               a(3) = (  -0.500000   0.500000   0.000000 )  

     reciprocal axes: (cart. coord. in units 2 pi/alat)
               b(1) = ( -1.000000 -1.000000  1.000000 )  
               b(2) = (  1.000000  1.000000  1.000000 )  
               b(3) = ( -1.000000  1.000000 -1.000000 )  


     PseudoPot. # 1 for Al read from file:
     ../pseudo/Al.pz-vbc.UPF
     MD5 check sum: c34c8b369e81ee50c191f4345b5f621b
     Pseudo is Norm-conserving, Zval =  3.0
     Generated by new atomic code, or converted to UPF format
     Using radial grid of  171 points,  2 beta functions with: 
                l(1) =   0
                l(2) =   1

     atomic species   valence    mass     pseudopotential
        Al             3.00    26.98000     Al( 1.00)

     48 Sym. Ops., with inversion, found



   Cartesian axes

     site n.     atom                  positions (alat units)
         1           Al  tau(   1) = (   0.0000000   0.0000000   0.0000000  )

     number of k points=    28  Marzari-Vanderbilt smearing, width (Ry)=  0.0200
                       cart. coord. in units 2pi/alat
        k(    1) = (  -0.0833333   0.0833333   0.0833333), wk =   0.0185185
        k(    2) = (  -0.2500000   0.2500000  -0.0833333), wk =   0.0555556
        k(    3) = (  -0.4166667   0.4166667  -0.2500000), wk =   0.0555556
        k(    4) = (   0.4166667  -0.4166667   0.5833333), wk =   0.0555556
        k(    5) = (   0.2500000  -0.2500000   0.4166667), wk =   0.0555556
        k(    6) = (   0.0833333  -0.0833333   0.2500000), wk =   0.0555556
        k(    7) = (  -0.0833333   0.4166667   0.0833333), wk =   0.0555556
        k(    8) = (  -0.2500000   0.5833333  -0.0833333), wk =   0.1111111
        k(    9) = (   0.5833333  -0.2500000   0.7500000), wk =   0.1111111
        k(   10) = (   0.4166667  -0.0833333   0.5833333), wk =   0.1111111
        k(   11) = (   0.2500000   0.0833333   0.4166667), wk =   0.1111111
        k(   12) = (  -0.0833333   0.7500000   0.0833333), wk =   0.0555556
        k(   13) = (   0.7500000  -0.0833333   0.9166667), wk =   0.1111111
        k(   14) = (   0.5833333   0.0833333   0.7500000), wk =   0.1111111
        k(   15) = (   0.4166667   0.2500000   0.5833333), wk =   0.1111111
        k(   16) = (  -0.0833333  -0.9166667   0.0833333), wk =   0.0555556
        k(   17) = (  -0.2500000  -0.7500000  -0.0833333), wk =   0.1111111
        k(   18) = (  -0.0833333  -0.5833333   0.0833333), wk =   0.0555556
        k(   19) = (  -0.2500000   0.2500000   0.2500000), wk =   0.0185185
        k(   20) = (  -0.4166667   0.4166667   0.0833333), wk =   0.0555556
        k(   21) = (   0.4166667  -0.4166667   0.9166667), wk =   0.0555556
        k(   22) = (   0.2500000  -0.2500000   0.7500000), wk =   0.0555556
        k(   23) = (  -0.2500000   0.5833333   0.2500000), wk =   0.0555556
        k(   24) = (   0.5833333  -0.2500000   1.0833333), wk =   0.1111111
        k(   25) = (   0.4166667  -0.0833333   0.9166667), wk =   0.1111111
        k(   26) = (  -0.2500000  -1.0833333   0.2500000), wk =   0.0555556
        k(   27) = (  -0.4166667   0.4166667   0.4166667), wk =   0.0185185
        k(   28) = (   0.4166667  -0.4166667   1.2500000), wk =   0.0555556

     Dense  grid:     1687 G-vectors     FFT dimensions: (  18,  18,  18)

     Largest allocated arrays     est. size (Mb)     dimensions
        Kohn-Sham Wavefunctions         0.02 Mb     (     216,    6)
        NL pseudopotentials             0.01 Mb     (     216,    4)
        Each V/rho on FFT grid          0.09 Mb     (    5832)
        Each G-vector array             0.01 Mb     (    1687)
        G-vector shells                 0.00 Mb     (      47)
     Largest temporary arrays     est. size (Mb)     dimensions
        Auxiliary wavefunctions         0.08 Mb     (     216,   24)
        Each subspace H/S matrix        0.01 Mb     (      24,   24)
        Each <psi_i|beta_j> matrix      0.00 Mb     (       4,    6)
        Arrays for rho mixing           0.71 Mb     (    5832,    8)

     Initial potential from superposition of free atoms

     starting charge    2.99794, renormalised to    3.00000
     Starting wfc are    9 randomized atomic wfcs

     total cpu time spent up to now is        0.1 secs

     per-process dynamical memory:     5.7 Mb

     Self-consistent Calculation

     iteration #  1     ecut=    32.00 Ry     beta=0.70
     Davidson diagonalization with overlap
     ethr =  1.00E-02,  avg # of iterations =  3.3

     Threshold (ethr) on eigenvalues was too large:
     Diagonalizing with lowered threshold

     Davidson diagonalization with overlap
     ethr =  2.44E-04,  avg # of iterations =  1.1

     total cpu time spent up to now is        0.3 secs

     total energy              =      -4.11735378 Ry
     Harris-Foulkes estimate   =      -4.11758106 Ry
     estimated scf accuracy    <       0.00733554 Ry

     iteration #  2     ecut=    32.00 Ry     beta=0.70
     Davidson diagonalization with overlap
     ethr =  2.45E-04,  avg # of iterations =  1.0

     total cpu time spent up to now is        0.4 secs

     total energy              =      -4.11749488 Ry
     Harris-Foulkes estimate   =      -4.11737249 Ry
     estimated scf accuracy    <       0.00061665 Ry

     iteration #  3     ecut=    32.00 Ry     beta=0.70
     Davidson diagonalization with overlap
     ethr =  2.06E-05,  avg # of iterations =  1.1

     total cpu time spent up to now is        0.4 secs

     End of self-consistent calculation

          k =-0.0833 0.0833 0.0833 (   193 PWs)   bands (ev):

    -1.0164  26.2440  28.9872  28.9872  34.6104  34.6117

          k =-0.2500 0.2500-0.0833 (   206 PWs)   bands (ev):

     0.3722  20.5962  25.0093  30.2224  32.7095  34.1219

          k =-0.4167 0.4167-0.2500 (   211 PWs)   bands (ev):

     3.7156  13.1648  24.2203  28.2629  30.9958  31.3368

          k = 0.4167-0.4167 0.5833 (   216 PWs)   bands (ev):

     6.7841   9.0651  24.9631  26.3288  29.4577  32.0036

          k = 0.2500-0.2500 0.4167 (   207 PWs)   bands (ev):

     2.4005  15.5248  25.8818  26.7082  29.6750  34.6467

          k = 0.0833-0.0833 0.2500 (   205 PWs)   bands (ev):

    -0.3185  23.4092  26.8465  27.9524  32.1982  34.2455

          k =-0.0833 0.4167 0.0833 (   207 PWs)   bands (ev):

     1.0560  20.9751  24.8627  25.4044  27.3031  32.4611

          k =-0.2500 0.5833-0.0833 (   212 PWs)   bands (ev):

     3.7177  16.3830  20.4878  23.4445  28.0045  33.6477

          k = 0.5833-0.2500 0.7500 (   209 PWs)   bands (ev):

     7.9813  10.2616  19.0861  22.5088  29.3847  34.3194

          k = 0.4167-0.0833 0.5833 (   210 PWs)   bands (ev):

     5.0023  14.0762  18.6382  24.3357  31.7893  32.6176

          k = 0.2500 0.0833 0.4167 (   208 PWs)   bands (ev):

     1.7317  18.2104  22.7724  27.7460  29.7145  34.7530

          k =-0.0833 0.7500 0.0833 (   209 PWs)   bands (ev):

     5.6447  16.5549  18.0678  22.3778  23.3249  29.9569

          k = 0.7500-0.0833 0.9167 (   211 PWs)   bands (ev):

     9.2314  12.9684  14.9927  20.3107  26.2570  32.2333

          k = 0.5833 0.0833 0.7500 (   213 PWs)   bands (ev):

     9.1594  11.2410  15.5641  21.6942  28.8208  36.8728

          k = 0.4167 0.2500 0.5833 (   210 PWs)   bands (ev):

     5.6275  11.3676  22.1723  24.9380  30.4105  32.1720

          k =-0.0833-0.9167 0.0833 (   212 PWs)   bands (ev):

     8.6607  12.6739  17.3378  21.8903  22.7104  29.3885

          k =-0.2500-0.7500-0.0833 (   210 PWs)   bands (ev):

     6.2665  15.0521  17.2334  21.1262  26.8421  32.7277

          k =-0.0833-0.5833 0.0833 (   213 PWs)   bands (ev):

     3.0640  19.0657  21.2998  23.3643  24.6129  31.0226

          k =-0.2500 0.2500 0.2500 (   205 PWs)   bands (ev):

     1.0556  17.8898  27.9081  27.9081  33.4737  33.4752

          k =-0.4167 0.4167 0.0833 (   210 PWs)   bands (ev):

     3.0616  15.8595  20.5591  28.1245  31.1349  32.9941

          k = 0.4167-0.4167 0.9167 (   213 PWs)   bands (ev):

     6.8655  12.3326  16.9166  24.9439  27.7857  36.7691

          k = 0.2500-0.2500 0.7500 (   214 PWs)   bands (ev):

     6.8725  12.4620  18.2280  23.3785  25.7945  35.7658

          k =-0.2500 0.5833 0.2500 (   209 PWs)   bands (ev):

     4.3638  13.7082  22.5529  24.3695  27.2397  36.3867

          k = 0.5833-0.2500 1.0833 (   211 PWs)   bands (ev):

     7.4795  12.8714  16.7635  20.5759  31.5939  33.8873

          k = 0.4167-0.0833 0.9167 (   210 PWs)   bands (ev):

    10.3003  12.1514  14.3009  18.7232  31.0375  35.8120

          k =-0.2500-1.0833 0.2500 (   214 PWs)   bands (ev):

     9.7229  11.6495  14.6267  22.8899  25.0773  35.3100

          k =-0.4167 0.4167 0.4167 (   210 PWs)   bands (ev):

     4.9965  10.7908  27.5668  27.5668  30.6863  30.6864

          k = 0.4167-0.4167 1.2500 (   213 PWs)   bands (ev):

     7.3833   9.6736  20.6730  25.4100  28.3915  34.1066

     the Fermi energy is    13.0872 ev

!    total energy              =      -4.11749874 Ry
     Harris-Foulkes estimate   =      -4.11749848 Ry
     estimated scf accuracy    <       0.00000027 Ry

     The total energy is the sum of the following terms:

     one-electron contribution =       4.07672214 Ry
     hartree contribution      =       0.02547454 Ry
     xc contribution           =      -1.87136965 Ry
     ewald contribution        =      -6.34827066 Ry
     smearing contrib. (-TS)   =      -0.00005512 Ry

     convergence has been achieved in   3 iterations

     Writing output data file Al_exc1.save

     init_run     :      0.07s CPU      0.08s WALL (       1 calls)
     electrons    :      0.33s CPU      0.34s WALL (       1 calls)

     Called by init_run:
     wfcinit      :      0.05s CPU      0.05s WALL (       1 calls)
     potinit      :      0.00s CPU      0.00s WALL (       1 calls)

     Called by electrons:
     c_bands      :      0.28s CPU      0.28s WALL (       4 calls)
     sum_band     :      0.05s CPU      0.05s WALL (       4 calls)
     v_of_rho     :      0.00s CPU      0.00s WALL (       4 calls)
     mix_rho      :      0.00s CPU      0.00s WALL (       4 calls)

     Called by c_bands:
     init_us_2    :      0.01s CPU      0.01s WALL (     252 calls)
     cegterg      :      0.27s CPU      0.28s WALL (     112 calls)

     Called by *egterg:
     h_psi        :      0.28s CPU      0.28s WALL (     322 calls)
     g_psi        :      0.00s CPU      0.00s WALL (     182 calls)
     cdiaghg      :      0.01s CPU      0.02s WALL (     266 calls)

     Called by h_psi:
     add_vuspsi   :      0.00s CPU      0.00s WALL (     322 calls)

     General routines
     calbec       :      0.00s CPU      0.00s WALL (     322 calls)
     fft          :      0.01s CPU      0.01s WALL (      17 calls)
     fftw         :      0.29s CPU      0.30s WALL (    4338 calls)
     davcio       :      0.00s CPU      0.00s WALL (      28 calls)

     Parallel routines
     fft_scatter  :      0.01s CPU      0.01s WALL (    4355 calls)

     PWSCF        :     0.46s CPU         0.48s WALL


   This run was terminated on:   6:10:18  30Apr2020            

=------------------------------------------------------------------------------=
   JOB DONE.
=------------------------------------------------------------------------------=
