
     Program PWSCF v.5.1 starts on 18Feb2020 at 20:29:11 

     This program is part of the open-source Quantum ESPRESSO suite
     for quantum simulation of materials; please cite
         "P. Giannozzi et al., J. Phys.:Condens. Matter 21 395502 (2009);
          URL http://www.quantum-espresso.org", 
     in publications or presentations arising from this work. More details at
     http://www.quantum-espresso.org/quote

     Parallel version (MPI), running on     1 processors
     Waiting for input...
     Reading input from standard input

     Current dimensions of program PWSCF are:
     Max number of different atomic species (ntypx) = 10
     Max number of k-points (npk) =  40000
     Max angular momentum in pseudopotentials (lmaxx) =  3
               file Cu.pz-d-rrkjus.UPF: wavefunction(s)  3D renormalized

     Subspace diagonalization in iterative solution of the eigenvalue problem:
     a serial algorithm will be used


     G-vector sticks info
     --------------------
     sticks:   dense  smooth     PW     G-vecs:    dense   smooth      PW
     Sum         121     121     55                  869      869     229



     bravais-lattice index     =            2
     lattice parameter (alat)  =       6.8311  a.u.
     unit-cell volume          =      79.6915 (a.u.)^3
     number of atoms/cell      =            1
     number of atomic types    =            1
     number of electrons       =        11.00
     number of Kohn-Sham states=           10
     kinetic-energy cutoff     =      18.0000  Ry
     charge density cutoff     =      72.0000  Ry
     convergence threshold     =      1.0E-06
     mixing beta               =       0.7000
     number of iterations used =            8  plain     mixing
     Exchange-correlation      =  SLA  PZ   NOGX NOGC ( 1  1  0  0 0)

     celldm(1)=   6.831100  celldm(2)=   0.000000  celldm(3)=   0.000000
     celldm(4)=   0.000000  celldm(5)=   0.000000  celldm(6)=   0.000000

     crystal axes: (cart. coord. in units of alat)
               a(1) = (  -0.500000   0.000000   0.500000 )  
               a(2) = (   0.000000   0.500000   0.500000 )  
               a(3) = (  -0.500000   0.500000   0.000000 )  

     reciprocal axes: (cart. coord. in units 2 pi/alat)
               b(1) = ( -1.000000 -1.000000  1.000000 )  
               b(2) = (  1.000000  1.000000  1.000000 )  
               b(3) = ( -1.000000  1.000000 -1.000000 )  


     PseudoPot. # 1 for Cu read from file:
     ../pseudo/Cu.pz-d-rrkjus.UPF
     MD5 check sum: fd38ae683e239c95a66f426e1f8e5fc7
     Pseudo is Ultrasoft, Zval = 11.0
     Generated by new atomic code, or converted to UPF format
     Using radial grid of  899 points,  3 beta functions with: 
                l(1) =   2
                l(2) =   2
                l(3) =   1
     Q(r) pseudized with 0 coefficients 


     atomic species   valence    mass     pseudopotential
        Cu            11.00    63.54000     Cu( 1.00)

     48 Sym. Ops., with inversion, found


                                    s                        frac. trans.

      isym =  1     identity                                     

 cryst.   s( 1) = (     1          0          0      )
                  (     0          1          0      )
                  (     0          0          1      )

 cart.    s( 1) = (  1.0000000  0.0000000  0.0000000 )
                  (  0.0000000  1.0000000  0.0000000 )
                  (  0.0000000  0.0000000  1.0000000 )


      isym =  2     180 deg rotation - cart. axis [0,0,1]        

 cryst.   s( 2) = (     0          1         -1      )
                  (     1          0         -1      )
                  (     0          0         -1      )

 cart.    s( 2) = ( -1.0000000  0.0000000  0.0000000 )
                  (  0.0000000 -1.0000000  0.0000000 )
                  (  0.0000000  0.0000000  1.0000000 )


      isym =  3     180 deg rotation - cart. axis [0,1,0]        

 cryst.   s( 3) = (    -1          0          0      )
                  (    -1          0          1      )
                  (    -1          1          0      )

 cart.    s( 3) = ( -1.0000000  0.0000000  0.0000000 )
                  (  0.0000000  1.0000000  0.0000000 )
                  (  0.0000000  0.0000000 -1.0000000 )


      isym =  4     180 deg rotation - cart. axis [1,0,0]        

 cryst.   s( 4) = (     0         -1          1      )
                  (     0         -1          0      )
                  (     1         -1          0      )

 cart.    s( 4) = (  1.0000000  0.0000000  0.0000000 )
                  (  0.0000000 -1.0000000  0.0000000 )
                  (  0.0000000  0.0000000 -1.0000000 )


      isym =  5     180 deg rotation - cart. axis [1,1,0]        

 cryst.   s( 5) = (     0         -1          0      )
                  (    -1          0          0      )
                  (     0          0         -1      )

 cart.    s( 5) = (  0.0000000  1.0000000  0.0000000 )
                  (  1.0000000  0.0000000  0.0000000 )
                  (  0.0000000  0.0000000 -1.0000000 )


      isym =  6     180 deg rotation - cart. axis [1,-1,0]       

 cryst.   s( 6) = (    -1          0          1      )
                  (     0         -1          1      )
                  (     0          0          1      )

 cart.    s( 6) = (  0.0000000 -1.0000000  0.0000000 )
                  ( -1.0000000  0.0000000  0.0000000 )
                  (  0.0000000  0.0000000 -1.0000000 )


      isym =  7      90 deg rotation - cart. axis [0,0,-1]       

 cryst.   s( 7) = (     0          1          0      )
                  (     0          1         -1      )
                  (    -1          1          0      )

 cart.    s( 7) = (  0.0000000  1.0000000  0.0000000 )
                  ( -1.0000000  0.0000000  0.0000000 )
                  (  0.0000000  0.0000000  1.0000000 )


      isym =  8      90 deg rotation - cart. axis [0,0,1]        

 cryst.   s( 8) = (     1          0         -1      )
                  (     1          0          0      )
                  (     1         -1          0      )

 cart.    s( 8) = (  0.0000000 -1.0000000  0.0000000 )
                  (  1.0000000  0.0000000  0.0000000 )
                  (  0.0000000  0.0000000  1.0000000 )


      isym =  9     180 deg rotation - cart. axis [1,0,1]        

 cryst.   s( 9) = (    -1          0          0      )
                  (     0          0         -1      )
                  (     0         -1          0      )

 cart.    s( 9) = (  0.0000000  0.0000000  1.0000000 )
                  (  0.0000000 -1.0000000  0.0000000 )
                  (  1.0000000  0.0000000  0.0000000 )


      isym = 10     180 deg rotation - cart. axis [-1,0,1]       

 cryst.   s(10) = (     1          0          0      )
                  (     1         -1          0      )
                  (     1          0         -1      )

 cart.    s(10) = (  0.0000000  0.0000000 -1.0000000 )
                  (  0.0000000 -1.0000000  0.0000000 )
                  ( -1.0000000  0.0000000  0.0000000 )


      isym = 11      90 deg rotation - cart. axis [0,1,0]        

 cryst.   s(11) = (     0          1         -1      )
                  (    -1          1          0      )
                  (     0          1          0      )

 cart.    s(11) = (  0.0000000  0.0000000  1.0000000 )
                  (  0.0000000  1.0000000  0.0000000 )
                  ( -1.0000000  0.0000000  0.0000000 )


      isym = 12      90 deg rotation - cart. axis [0,-1,0]       

 cryst.   s(12) = (     0         -1          1      )
                  (     0          0          1      )
                  (    -1          0          1      )

 cart.    s(12) = (  0.0000000  0.0000000 -1.0000000 )
                  (  0.0000000  1.0000000  0.0000000 )
                  (  1.0000000  0.0000000  0.0000000 )


      isym = 13     180 deg rotation - cart. axis [0,1,1]        

 cryst.   s(13) = (    -1          1          0      )
                  (     0          1          0      )
                  (     0          1         -1      )

 cart.    s(13) = ( -1.0000000  0.0000000  0.0000000 )
                  (  0.0000000  0.0000000  1.0000000 )
                  (  0.0000000  1.0000000  0.0000000 )


      isym = 14     180 deg rotation - cart. axis [0,1,-1]       

 cryst.   s(14) = (     0          0         -1      )
                  (     0         -1          0      )
                  (    -1          0          0      )

 cart.    s(14) = ( -1.0000000  0.0000000  0.0000000 )
                  (  0.0000000  0.0000000 -1.0000000 )
                  (  0.0000000 -1.0000000  0.0000000 )


      isym = 15      90 deg rotation - cart. axis [-1,0,0]       

 cryst.   s(15) = (     0          0          1      )
                  (    -1          0          1      )
                  (     0         -1          1      )

 cart.    s(15) = (  1.0000000  0.0000000  0.0000000 )
                  (  0.0000000  0.0000000  1.0000000 )
                  (  0.0000000 -1.0000000  0.0000000 )


      isym = 16      90 deg rotation - cart. axis [1,0,0]        

 cryst.   s(16) = (     1         -1          0      )
                  (     1          0         -1      )
                  (     1          0          0      )

 cart.    s(16) = (  1.0000000  0.0000000  0.0000000 )
                  (  0.0000000  0.0000000 -1.0000000 )
                  (  0.0000000  1.0000000  0.0000000 )


      isym = 17     120 deg rotation - cart. axis [-1,-1,-1]     

 cryst.   s(17) = (    -1          0          1      )
                  (    -1          1          0      )
                  (    -1          0          0      )

 cart.    s(17) = (  0.0000000  1.0000000  0.0000000 )
                  (  0.0000000  0.0000000  1.0000000 )
                  (  1.0000000  0.0000000  0.0000000 )


      isym = 18     120 deg rotation - cart. axis [-1,1,1]       

 cryst.   s(18) = (     0          1          0      )
                  (     0          0          1      )
                  (     1          0          0      )

 cart.    s(18) = (  0.0000000 -1.0000000  0.0000000 )
                  (  0.0000000  0.0000000  1.0000000 )
                  ( -1.0000000  0.0000000  0.0000000 )


      isym = 19     120 deg rotation - cart. axis [1,1,-1]       

 cryst.   s(19) = (     1          0         -1      )
                  (     0          0         -1      )
                  (     0          1         -1      )

 cart.    s(19) = (  0.0000000  1.0000000  0.0000000 )
                  (  0.0000000  0.0000000 -1.0000000 )
                  ( -1.0000000  0.0000000  0.0000000 )


      isym = 20     120 deg rotation - cart. axis [1,-1,1]       

 cryst.   s(20) = (     0         -1          0      )
                  (     1         -1          0      )
                  (     0         -1          1      )

 cart.    s(20) = (  0.0000000 -1.0000000  0.0000000 )
                  (  0.0000000  0.0000000 -1.0000000 )
                  (  1.0000000  0.0000000  0.0000000 )


      isym = 21     120 deg rotation - cart. axis [1,1,1]        

 cryst.   s(21) = (     0          0         -1      )
                  (     0          1         -1      )
                  (     1          0         -1      )

 cart.    s(21) = (  0.0000000  0.0000000  1.0000000 )
                  (  1.0000000  0.0000000  0.0000000 )
                  (  0.0000000  1.0000000  0.0000000 )


      isym = 22     120 deg rotation - cart. axis [-1,1,-1]      

 cryst.   s(22) = (    -1          1          0      )
                  (    -1          0          0      )
                  (    -1          0          1      )

 cart.    s(22) = (  0.0000000  0.0000000  1.0000000 )
                  ( -1.0000000  0.0000000  0.0000000 )
                  (  0.0000000 -1.0000000  0.0000000 )


      isym = 23     120 deg rotation - cart. axis [1,-1,-1]      

 cryst.   s(23) = (     0          0          1      )
                  (     1          0          0      )
                  (     0          1          0      )

 cart.    s(23) = (  0.0000000  0.0000000 -1.0000000 )
                  ( -1.0000000  0.0000000  0.0000000 )
                  (  0.0000000  1.0000000  0.0000000 )


      isym = 24     120 deg rotation - cart. axis [-1,-1,1]      

 cryst.   s(24) = (     1         -1          0      )
                  (     0         -1          1      )
                  (     0         -1          0      )

 cart.    s(24) = (  0.0000000  0.0000000 -1.0000000 )
                  (  1.0000000  0.0000000  0.0000000 )
                  (  0.0000000 -1.0000000  0.0000000 )


      isym = 25     inversion                                    

 cryst.   s(25) = (    -1          0          0      )
                  (     0         -1          0      )
                  (     0          0         -1      )

 cart.    s(25) = ( -1.0000000  0.0000000  0.0000000 )
                  (  0.0000000 -1.0000000  0.0000000 )
                  (  0.0000000  0.0000000 -1.0000000 )


      isym = 26     inv. 180 deg rotation - cart. axis [0,0,1]   

 cryst.   s(26) = (     0         -1          1      )
                  (    -1          0          1      )
                  (     0          0          1      )

 cart.    s(26) = (  1.0000000  0.0000000  0.0000000 )
                  (  0.0000000  1.0000000  0.0000000 )
                  (  0.0000000  0.0000000 -1.0000000 )


      isym = 27     inv. 180 deg rotation - cart. axis [0,1,0]   

 cryst.   s(27) = (     1          0          0      )
                  (     1          0         -1      )
                  (     1         -1          0      )

 cart.    s(27) = (  1.0000000  0.0000000  0.0000000 )
                  (  0.0000000 -1.0000000  0.0000000 )
                  (  0.0000000  0.0000000  1.0000000 )


      isym = 28     inv. 180 deg rotation - cart. axis [1,0,0]   

 cryst.   s(28) = (     0          1         -1      )
                  (     0          1          0      )
                  (    -1          1          0      )

 cart.    s(28) = ( -1.0000000  0.0000000  0.0000000 )
                  (  0.0000000  1.0000000  0.0000000 )
                  (  0.0000000  0.0000000  1.0000000 )


      isym = 29     inv. 180 deg rotation - cart. axis [1,1,0]   

 cryst.   s(29) = (     0          1          0      )
                  (     1          0          0      )
                  (     0          0          1      )

 cart.    s(29) = (  0.0000000 -1.0000000  0.0000000 )
                  ( -1.0000000  0.0000000  0.0000000 )
                  (  0.0000000  0.0000000  1.0000000 )


      isym = 30     inv. 180 deg rotation - cart. axis [1,-1,0]  

 cryst.   s(30) = (     1          0         -1      )
                  (     0          1         -1      )
                  (     0          0         -1      )

 cart.    s(30) = (  0.0000000  1.0000000  0.0000000 )
                  (  1.0000000  0.0000000  0.0000000 )
                  (  0.0000000  0.0000000  1.0000000 )


      isym = 31     inv.  90 deg rotation - cart. axis [0,0,-1]  

 cryst.   s(31) = (     0         -1          0      )
                  (     0         -1          1      )
                  (     1         -1          0      )

 cart.    s(31) = (  0.0000000 -1.0000000  0.0000000 )
                  (  1.0000000  0.0000000  0.0000000 )
                  (  0.0000000  0.0000000 -1.0000000 )


      isym = 32     inv.  90 deg rotation - cart. axis [0,0,1]   

 cryst.   s(32) = (    -1          0          1      )
                  (    -1          0          0      )
                  (    -1          1          0      )

 cart.    s(32) = (  0.0000000  1.0000000  0.0000000 )
                  ( -1.0000000  0.0000000  0.0000000 )
                  (  0.0000000  0.0000000 -1.0000000 )


      isym = 33     inv. 180 deg rotation - cart. axis [1,0,1]   

 cryst.   s(33) = (     1          0          0      )
                  (     0          0          1      )
                  (     0          1          0      )

 cart.    s(33) = (  0.0000000  0.0000000 -1.0000000 )
                  (  0.0000000  1.0000000  0.0000000 )
                  ( -1.0000000  0.0000000  0.0000000 )


      isym = 34     inv. 180 deg rotation - cart. axis [-1,0,1]  

 cryst.   s(34) = (    -1          0          0      )
                  (    -1          1          0      )
                  (    -1          0          1      )

 cart.    s(34) = (  0.0000000  0.0000000  1.0000000 )
                  (  0.0000000  1.0000000  0.0000000 )
                  (  1.0000000  0.0000000  0.0000000 )


      isym = 35     inv.  90 deg rotation - cart. axis [0,1,0]   

 cryst.   s(35) = (     0         -1          1      )
                  (     1         -1          0      )
                  (     0         -1          0      )

 cart.    s(35) = (  0.0000000  0.0000000 -1.0000000 )
                  (  0.0000000 -1.0000000  0.0000000 )
                  (  1.0000000  0.0000000  0.0000000 )


      isym = 36     inv.  90 deg rotation - cart. axis [0,-1,0]  

 cryst.   s(36) = (     0          1         -1      )
                  (     0          0         -1      )
                  (     1          0         -1      )

 cart.    s(36) = (  0.0000000  0.0000000  1.0000000 )
                  (  0.0000000 -1.0000000  0.0000000 )
                  ( -1.0000000  0.0000000  0.0000000 )


      isym = 37     inv. 180 deg rotation - cart. axis [0,1,1]   

 cryst.   s(37) = (     1         -1          0      )
                  (     0         -1          0      )
                  (     0         -1          1      )

 cart.    s(37) = (  1.0000000  0.0000000  0.0000000 )
                  (  0.0000000  0.0000000 -1.0000000 )
                  (  0.0000000 -1.0000000  0.0000000 )


      isym = 38     inv. 180 deg rotation - cart. axis [0,1,-1]  

 cryst.   s(38) = (     0          0          1      )
                  (     0          1          0      )
                  (     1          0          0      )

 cart.    s(38) = (  1.0000000  0.0000000  0.0000000 )
                  (  0.0000000  0.0000000  1.0000000 )
                  (  0.0000000  1.0000000  0.0000000 )


      isym = 39     inv.  90 deg rotation - cart. axis [-1,0,0]  

 cryst.   s(39) = (     0          0         -1      )
                  (     1          0         -1      )
                  (     0          1         -1      )

 cart.    s(39) = ( -1.0000000  0.0000000  0.0000000 )
                  (  0.0000000  0.0000000 -1.0000000 )
                  (  0.0000000  1.0000000  0.0000000 )


      isym = 40     inv.  90 deg rotation - cart. axis [1,0,0]   

 cryst.   s(40) = (    -1          1          0      )
                  (    -1          0          1      )
                  (    -1          0          0      )

 cart.    s(40) = ( -1.0000000  0.0000000  0.0000000 )
                  (  0.0000000  0.0000000  1.0000000 )
                  (  0.0000000 -1.0000000  0.0000000 )


      isym = 41     inv. 120 deg rotation - cart. axis [-1,-1,-1]

 cryst.   s(41) = (     1          0         -1      )
                  (     1         -1          0      )
                  (     1          0          0      )

 cart.    s(41) = (  0.0000000 -1.0000000  0.0000000 )
                  (  0.0000000  0.0000000 -1.0000000 )
                  ( -1.0000000  0.0000000  0.0000000 )


      isym = 42     inv. 120 deg rotation - cart. axis [-1,1,1]  

 cryst.   s(42) = (     0         -1          0      )
                  (     0          0         -1      )
                  (    -1          0          0      )

 cart.    s(42) = (  0.0000000  1.0000000  0.0000000 )
                  (  0.0000000  0.0000000 -1.0000000 )
                  (  1.0000000  0.0000000  0.0000000 )


      isym = 43     inv. 120 deg rotation - cart. axis [1,1,-1]  

 cryst.   s(43) = (    -1          0          1      )
                  (     0          0          1      )
                  (     0         -1          1      )

 cart.    s(43) = (  0.0000000 -1.0000000  0.0000000 )
                  (  0.0000000  0.0000000  1.0000000 )
                  (  1.0000000  0.0000000  0.0000000 )


      isym = 44     inv. 120 deg rotation - cart. axis [1,-1,1]  

 cryst.   s(44) = (     0          1          0      )
                  (    -1          1          0      )
                  (     0          1         -1      )

 cart.    s(44) = (  0.0000000  1.0000000  0.0000000 )
                  (  0.0000000  0.0000000  1.0000000 )
                  ( -1.0000000  0.0000000  0.0000000 )


      isym = 45     inv. 120 deg rotation - cart. axis [1,1,1]   

 cryst.   s(45) = (     0          0          1      )
                  (     0         -1          1      )
                  (    -1          0          1      )

 cart.    s(45) = (  0.0000000  0.0000000 -1.0000000 )
                  ( -1.0000000  0.0000000  0.0000000 )
                  (  0.0000000 -1.0000000  0.0000000 )


      isym = 46     inv. 120 deg rotation - cart. axis [-1,1,-1] 

 cryst.   s(46) = (     1         -1          0      )
                  (     1          0          0      )
                  (     1          0         -1      )

 cart.    s(46) = (  0.0000000  0.0000000 -1.0000000 )
                  (  1.0000000  0.0000000  0.0000000 )
                  (  0.0000000  1.0000000  0.0000000 )


      isym = 47     inv. 120 deg rotation - cart. axis [1,-1,-1] 

 cryst.   s(47) = (     0          0         -1      )
                  (    -1          0          0      )
                  (     0         -1          0      )

 cart.    s(47) = (  0.0000000  0.0000000  1.0000000 )
                  (  1.0000000  0.0000000  0.0000000 )
                  (  0.0000000 -1.0000000  0.0000000 )


      isym = 48     inv. 120 deg rotation - cart. axis [-1,-1,1] 

 cryst.   s(48) = (    -1          1          0      )
                  (     0          1         -1      )
                  (     0          1          0      )

 cart.    s(48) = (  0.0000000  0.0000000  1.0000000 )
                  ( -1.0000000  0.0000000  0.0000000 )
                  (  0.0000000  1.0000000  0.0000000 )


     point group O_h (m-3m) 
     there are 10 classes
     the character table:

       E     8C3   6C2'  6C4   3C2   i     6S4   8S6   3s_h  6s_d 
A_1g   1.00  1.00  1.00  1.00  1.00  1.00  1.00  1.00  1.00  1.00
A_2g   1.00  1.00 -1.00 -1.00  1.00  1.00 -1.00  1.00  1.00 -1.00
E_g    2.00 -1.00  0.00  0.00  2.00  2.00  0.00 -1.00  2.00  0.00
T_1g   3.00  0.00 -1.00  1.00 -1.00  3.00  1.00  0.00 -1.00 -1.00
T_2g   3.00  0.00  1.00 -1.00 -1.00  3.00 -1.00  0.00 -1.00  1.00
A_1u   1.00  1.00  1.00  1.00  1.00 -1.00 -1.00 -1.00 -1.00 -1.00
A_2u   1.00  1.00 -1.00 -1.00  1.00 -1.00  1.00 -1.00 -1.00  1.00
E_u    2.00 -1.00  0.00  0.00  2.00 -2.00  0.00  1.00 -2.00  0.00
T_1u   3.00  0.00 -1.00  1.00 -1.00 -3.00 -1.00  0.00  1.00  1.00
T_2u   3.00  0.00  1.00 -1.00 -1.00 -3.00  1.00  0.00  1.00 -1.00

     the symmetry operations in each class:
     E        1
     3C2      2    4    3
     6C2'     5    6   14   13   10    9
     6C4      7    8   15   16   12   11
     8C3     17   19   20   18   24   21   22   23
     i       25
     3s_h    26   28   27
     6s_d    29   30   38   37   34   33
     6S4     31   32   39   40   36   35
     8S6     41   43   44   42   48   45   46   47

   Cartesian axes

     site n.     atom                  positions (alat units)
         1           Cu  tau(   1) = (   0.0000000   0.0000000   0.0000000  )

   Crystallographic axes

     site n.     atom                  positions (cryst. coord.)
         1           Cu  tau(   1) = (  0.0000000  0.0000000  0.0000000  )

     number of k points=    28  Marzari-Vanderbilt smearing, width (Ry)=  0.0200
                       cart. coord. in units 2pi/alat
        k(    1) = (  -0.0833333   0.0833333   0.0833333), wk =   0.0185185
        k(    2) = (  -0.2500000   0.2500000  -0.0833333), wk =   0.0555556
        k(    3) = (  -0.4166667   0.4166667  -0.2500000), wk =   0.0555556
        k(    4) = (   0.4166667  -0.4166667   0.5833333), wk =   0.0555556
        k(    5) = (   0.2500000  -0.2500000   0.4166667), wk =   0.0555556
        k(    6) = (   0.0833333  -0.0833333   0.2500000), wk =   0.0555556
        k(    7) = (  -0.0833333   0.4166667   0.0833333), wk =   0.0555556
        k(    8) = (  -0.2500000   0.5833333  -0.0833333), wk =   0.1111111
        k(    9) = (   0.5833333  -0.2500000   0.7500000), wk =   0.1111111
        k(   10) = (   0.4166667  -0.0833333   0.5833333), wk =   0.1111111
        k(   11) = (   0.2500000   0.0833333   0.4166667), wk =   0.1111111
        k(   12) = (  -0.0833333   0.7500000   0.0833333), wk =   0.0555556
        k(   13) = (   0.7500000  -0.0833333   0.9166667), wk =   0.1111111
        k(   14) = (   0.5833333   0.0833333   0.7500000), wk =   0.1111111
        k(   15) = (   0.4166667   0.2500000   0.5833333), wk =   0.1111111
        k(   16) = (  -0.0833333  -0.9166667   0.0833333), wk =   0.0555556
        k(   17) = (  -0.2500000  -0.7500000  -0.0833333), wk =   0.1111111
        k(   18) = (  -0.0833333  -0.5833333   0.0833333), wk =   0.0555556
        k(   19) = (  -0.2500000   0.2500000   0.2500000), wk =   0.0185185
        k(   20) = (  -0.4166667   0.4166667   0.0833333), wk =   0.0555556
        k(   21) = (   0.4166667  -0.4166667   0.9166667), wk =   0.0555556
        k(   22) = (   0.2500000  -0.2500000   0.7500000), wk =   0.0555556
        k(   23) = (  -0.2500000   0.5833333   0.2500000), wk =   0.0555556
        k(   24) = (   0.5833333  -0.2500000   1.0833333), wk =   0.1111111
        k(   25) = (   0.4166667  -0.0833333   0.9166667), wk =   0.1111111
        k(   26) = (  -0.2500000  -1.0833333   0.2500000), wk =   0.0555556
        k(   27) = (  -0.4166667   0.4166667   0.4166667), wk =   0.0185185
        k(   28) = (   0.4166667  -0.4166667   1.2500000), wk =   0.0555556

                       cryst. coord.
        k(    1) = (   0.0833333   0.0833333   0.0833333), wk =   0.0185185
        k(    2) = (   0.0833333   0.0833333   0.2500000), wk =   0.0555556
        k(    3) = (   0.0833333   0.0833333   0.4166667), wk =   0.0555556
        k(    4) = (   0.0833333   0.0833333  -0.4166667), wk =   0.0555556
        k(    5) = (   0.0833333   0.0833333  -0.2500000), wk =   0.0555556
        k(    6) = (   0.0833333   0.0833333  -0.0833333), wk =   0.0555556
        k(    7) = (   0.0833333   0.2500000   0.2500000), wk =   0.0555556
        k(    8) = (   0.0833333   0.2500000   0.4166667), wk =   0.1111111
        k(    9) = (   0.0833333   0.2500000  -0.4166667), wk =   0.1111111
        k(   10) = (   0.0833333   0.2500000  -0.2500000), wk =   0.1111111
        k(   11) = (   0.0833333   0.2500000  -0.0833333), wk =   0.1111111
        k(   12) = (   0.0833333   0.4166667   0.4166667), wk =   0.0555556
        k(   13) = (   0.0833333   0.4166667  -0.4166667), wk =   0.1111111
        k(   14) = (   0.0833333   0.4166667  -0.2500000), wk =   0.1111111
        k(   15) = (   0.0833333   0.4166667  -0.0833333), wk =   0.1111111
        k(   16) = (   0.0833333  -0.4166667  -0.4166667), wk =   0.0555556
        k(   17) = (   0.0833333  -0.4166667  -0.2500000), wk =   0.1111111
        k(   18) = (   0.0833333  -0.2500000  -0.2500000), wk =   0.0555556
        k(   19) = (   0.2500000   0.2500000   0.2500000), wk =   0.0185185
        k(   20) = (   0.2500000   0.2500000   0.4166667), wk =   0.0555556
        k(   21) = (   0.2500000   0.2500000  -0.4166667), wk =   0.0555556
        k(   22) = (   0.2500000   0.2500000  -0.2500000), wk =   0.0555556
        k(   23) = (   0.2500000   0.4166667   0.4166667), wk =   0.0555556
        k(   24) = (   0.2500000   0.4166667  -0.4166667), wk =   0.1111111
        k(   25) = (   0.2500000   0.4166667  -0.2500000), wk =   0.1111111
        k(   26) = (   0.2500000  -0.4166667  -0.4166667), wk =   0.0555556
        k(   27) = (   0.4166667   0.4166667   0.4166667), wk =   0.0185185
        k(   28) = (   0.4166667   0.4166667  -0.4166667), wk =   0.0555556

     Dense  grid:      869 G-vectors     FFT dimensions: (  15,  15,  15)

     Largest allocated arrays     est. size (Mb)     dimensions
        Kohn-Sham Wavefunctions         0.02 Mb     (     113,   10)
        NL pseudopotentials             0.02 Mb     (     113,   13)
        Each V/rho on FFT grid          0.05 Mb     (    3375)
        Each G-vector array             0.01 Mb     (     869)
        G-vector shells                 0.00 Mb     (      31)
     Largest temporary arrays     est. size (Mb)     dimensions
        Auxiliary wavefunctions         0.07 Mb     (     113,   40)
        Each subspace H/S matrix        0.02 Mb     (      40,   40)
        Each <psi_i|beta_j> matrix      0.00 Mb     (      13,   10)
        Arrays for rho mixing           0.41 Mb     (    3375,    8)

     Initial potential from superposition of free atoms
     Check: negative starting charge=   -0.012625

     starting charge   10.99968, renormalised to   11.00000

     negative rho (up, down):  1.262E-02 0.000E+00
     Starting wfc are    6 randomized atomic wfcs +    4 random wfc

     total cpu time spent up to now is        1.1 secs

     per-process dynamical memory:     5.2 Mb

     Self-consistent Calculation

     iteration #  1     ecut=    18.00 Ry     beta=0.70
     Davidson diagonalization with overlap
     ethr =  1.00E-02,  avg # of iterations =  4.5

     negative rho (up, down):  1.185E-02 0.000E+00

     total cpu time spent up to now is        1.4 secs

     total energy              =     -87.76650166 Ry
     Harris-Foulkes estimate   =     -87.92902174 Ry
     estimated scf accuracy    <       0.22210371 Ry

     iteration #  2     ecut=    18.00 Ry     beta=0.70
     Davidson diagonalization with overlap
     ethr =  2.02E-03,  avg # of iterations =  2.0

     negative rho (up, down):  1.236E-02 0.000E+00

     total cpu time spent up to now is        1.6 secs

     total energy              =     -87.83917889 Ry
     Harris-Foulkes estimate   =     -87.92919167 Ry
     estimated scf accuracy    <       0.18234007 Ry

     iteration #  3     ecut=    18.00 Ry     beta=0.70
     Davidson diagonalization with overlap
     ethr =  1.66E-03,  avg # of iterations =  1.0

     negative rho (up, down):  1.242E-02 0.000E+00

     total cpu time spent up to now is        1.8 secs

     total energy              =     -87.86825266 Ry
     Harris-Foulkes estimate   =     -87.86866314 Ry
     estimated scf accuracy    <       0.00074221 Ry

     iteration #  4     ecut=    18.00 Ry     beta=0.70
     Davidson diagonalization with overlap
     ethr =  6.75E-06,  avg # of iterations =  2.1

     negative rho (up, down):  1.243E-02 0.000E+00

     total cpu time spent up to now is        2.1 secs

     total energy              =     -87.86856321 Ry
     Harris-Foulkes estimate   =     -87.86857501 Ry
     estimated scf accuracy    <       0.00005123 Ry

     iteration #  5     ecut=    18.00 Ry     beta=0.70
     Davidson diagonalization with overlap
     ethr =  4.66E-07,  avg # of iterations =  1.0

     negative rho (up, down):  1.243E-02 0.000E+00

     total cpu time spent up to now is        2.4 secs

     total energy              =     -87.86855983 Ry
     Harris-Foulkes estimate   =     -87.86856536 Ry
     estimated scf accuracy    <       0.00001272 Ry

     iteration #  6     ecut=    18.00 Ry     beta=0.70
     Davidson diagonalization with overlap
     ethr =  1.16E-07,  avg # of iterations =  1.0

     negative rho (up, down):  1.243E-02 0.000E+00

     total cpu time spent up to now is        2.7 secs

     End of self-consistent calculation

          k =-0.0833 0.0833 0.0833 (   113 PWs)   bands (ev):

     4.7583  10.4467  10.5442  10.5442  11.2957  11.2957  35.2500  38.0604
    38.7152  38.7152

     occupation numbers 
     1.0000   1.0000   1.0000   1.0000   1.0000   1.0000   0.0000   0.0000
     0.0000   0.0000

          k =-0.2500 0.2500-0.0833 (   103 PWs)   bands (ev):

     6.0399  10.2267  10.6708  10.7261  11.1566  11.4770  29.4012  33.0472
    39.2409  40.2489

     occupation numbers 
     1.0000   1.0000   1.0000   1.0000   1.0000   1.0000   0.0000   0.0000
     0.0000   0.0000

          k =-0.4167 0.4167-0.2500 (   103 PWs)   bands (ev):

     8.2366  10.4920  10.6106  10.6114  11.5740  12.1706  21.4454  32.2418
    36.8079  37.0792

     occupation numbers 
     1.0000   1.0000   1.0000   1.0000   1.0000   1.0000   0.0000   0.0000
     0.0000   0.0000

          k = 0.4167-0.4167 0.5833 (   101 PWs)   bands (ev):

     8.6566  10.3785  10.5464  11.2817  11.8991  13.4189  17.8798  33.3659
    34.4363  35.4606

     occupation numbers 
     1.0000   1.0000   1.0000   1.0000   1.0000   0.7665   0.0000   0.0000
     0.0000   0.0000

          k = 0.2500-0.2500 0.4167 (   102 PWs)   bands (ev):

     7.6052  10.2420  10.5592  10.6900  11.6135  11.6755  23.8792  33.9512
    35.3203  36.8502

     occupation numbers 
     1.0000   1.0000   1.0000   1.0000   1.0000   1.0000   0.0000   0.0000
     0.0000   0.0000

          k = 0.0833-0.0833 0.2500 (   107 PWs)   bands (ev):

     5.4147  10.2827  10.6733  10.6785  11.1558  11.3861  32.3939  35.5214
    36.4044  39.3762

     occupation numbers 
     1.0000   1.0000   1.0000   1.0000   1.0000   1.0000   0.0000   0.0000
     0.0000   0.0000

          k =-0.0833 0.4167 0.0833 (   104 PWs)   bands (ev):

     6.6358   9.9814  10.7577  10.9341  11.1707  11.5415  29.8664  32.5368
    34.5824  35.8605

     occupation numbers 
     1.0000   1.0000   1.0000   1.0000   1.0000   1.0000   0.0000   0.0000
     0.0000   0.0000

          k =-0.2500 0.5833-0.0833 (   103 PWs)   bands (ev):

     8.4602   9.7632  10.4415  11.1623  11.5927  12.4190  24.8972  28.4998
    30.8077  36.5396

     occupation numbers 
     1.0000   1.0000   1.0000   1.0000   1.0000   1.0000   0.0000   0.0000
     0.0000   0.0000

          k = 0.5833-0.2500 0.7500 (   101 PWs)   bands (ev):

     9.2589   9.9094  10.4608  10.9744  11.8601  15.5858  18.4799  27.5824
    29.1716  36.7344

     occupation numbers 
     1.0000   1.0000   1.0000   1.0000   1.0000   0.0000   0.0000   0.0000
     0.0000   0.0000

          k = 0.4167-0.0833 0.5833 (   102 PWs)   bands (ev):

     9.0307  10.0096  10.1865  11.0301  11.4980  13.4012  22.4480  26.3017
    31.8636  38.5190

     occupation numbers 
     1.0000   1.0000   1.0000   1.0000   1.0000   0.8108   0.0000   0.0000
     0.0000   0.0000

          k = 0.2500 0.0833 0.4167 (   103 PWs)   bands (ev):

     7.1837  10.0314  10.5891  10.8897  11.2370  11.7842  26.8824  30.5224
    36.1385  38.0708

     occupation numbers 
     1.0000   1.0000   1.0000   1.0000   1.0000   1.0000   0.0000   0.0000
     0.0000   0.0000

          k =-0.0833 0.7500 0.0833 (   105 PWs)   bands (ev):

     8.7221   9.3460  11.3727  11.5940  11.8862  12.9923  25.4064  26.2324
    28.2913  32.9632

     occupation numbers 
     1.0000   1.0000   1.0000   1.0000   1.0000   1.0355   0.0000   0.0000
     0.0000   0.0000

          k = 0.7500-0.0833 0.9167 (   104 PWs)   bands (ev):

     9.0451   9.3676  11.0488  11.5970  11.9827  16.3695  22.0452  22.7322
    26.2677  35.1652

     occupation numbers 
     1.0000   1.0000   1.0000   1.0000   1.0000   0.0000   0.0000   0.0000
     0.0000   0.0000

          k = 0.5833 0.0833 0.7500 (   102 PWs)   bands (ev):

     9.5558   9.6848  10.3161  11.2078  11.7911  17.1304  19.1051  23.5098
    28.5235  36.5140

     occupation numbers 
     1.0000   1.0000   1.0000   1.0000   1.0000   0.0000   0.0000   0.0000
     0.0000   0.0000

          k = 0.4167 0.2500 0.5833 (   103 PWs)   bands (ev):

     8.8092  10.2572  10.6024  10.7474  11.7886  13.4110  19.6310  30.4032
    32.4009  36.9880

     occupation numbers 
     1.0000   1.0000   1.0000   1.0000   1.0000   0.7864   0.0000   0.0000
     0.0000   0.0000

          k =-0.0833-0.9167 0.0833 (   103 PWs)   bands (ev):

     8.7702   9.1801  11.7488  11.7862  12.0020  15.1595  21.7398  25.3829
    27.3437  32.6689

     occupation numbers 
     1.0000   1.0000   1.0000   1.0000   1.0000   0.0000   0.0000   0.0000
     0.0000   0.0000

          k =-0.2500-0.7500-0.0833 (   103 PWs)   bands (ev):

     9.0400   9.5116  10.6899  11.4629  11.8461  14.0170  23.4406  25.9341
    27.0731  35.6122

     occupation numbers 
     1.0000   1.0000   1.0000   1.0000   1.0000   0.0016   0.0000   0.0000
     0.0000   0.0000

          k =-0.0833-0.5833 0.0833 (   101 PWs)   bands (ev):

     8.0468   9.6381  10.8078  11.2692  11.6893  11.7218  27.7597  30.0829
    30.2464  33.7768

     occupation numbers 
     1.0000   1.0000   1.0000   1.0000   1.0000   1.0000   0.0000   0.0000
     0.0000   0.0000

          k =-0.2500 0.2500 0.2500 (   104 PWs)   bands (ev):

     6.6094  10.2724  10.6529  10.6529  11.4033  11.4033  26.3529  36.8942
    36.8942  37.1759

     occupation numbers 
     1.0000   1.0000   1.0000   1.0000   1.0000   1.0000   0.0000   0.0000
     0.0000   0.0000

          k =-0.4167 0.4167 0.0833 (    98 PWs)   bands (ev):

     8.1180  10.0691  10.4546  10.8652  11.2422  12.3493  24.4194  28.1778
    36.9496  37.3879

     occupation numbers 
     1.0000   1.0000   1.0000   1.0000   1.0000   1.0000   0.0000   0.0000
     0.0000   0.0000

          k = 0.4167-0.4167 0.9167 (   101 PWs)   bands (ev):

     9.3942   9.9701  10.2437  11.0227  11.5825  14.9066  20.4996  24.6030
    32.4719  34.9422

     occupation numbers 
     1.0000   1.0000   1.0000   1.0000   1.0000   0.0000   0.0000   0.0000
     0.0000   0.0000

          k = 0.2500-0.2500 0.7500 (   104 PWs)   bands (ev):

     9.1599   9.6931  10.5634  11.1375  11.9341  14.6530  20.5430  26.4728
    30.0153  33.8244

     occupation numbers 
     1.0000   1.0000   1.0000   1.0000   1.0000   0.0000   0.0000   0.0000
     0.0000   0.0000

          k =-0.2500 0.5833 0.2500 (   104 PWs)   bands (ev):

     8.6254  10.0207  10.4370  10.8649  11.8716  12.6367  21.9312  31.2993
    31.6346  34.5297

     occupation numbers 
     1.0000   1.0000   1.0000   1.0000   1.0000   1.0002   0.0000   0.0000
     0.0000   0.0000

          k = 0.5833-0.2500 1.0833 (   105 PWs)   bands (ev):

     9.4738   9.7825  10.1446  11.2561  11.7836  15.3973  21.0320  25.0210
    27.0041  39.4678

     occupation numbers 
     1.0000   1.0000   1.0000   1.0000   1.0000   0.0000   0.0000   0.0000
     0.0000   0.0000

          k = 0.4167-0.0833 0.9167 (   104 PWs)   bands (ev):

     9.4039   9.7284  10.3114  11.3297  11.9749  18.0970  20.2385  22.9560
    24.4155  39.4719

     occupation numbers 
     1.0000   1.0000   1.0000   1.0000   1.0000   0.0000   0.0000   0.0000
     0.0000   0.0000

          k =-0.2500-1.0833 0.2500 (   102 PWs)   bands (ev):

     9.2535   9.5072  10.7623  11.4010  11.8711  17.2899  19.7267  22.5861
    29.1712  33.5617

     occupation numbers 
     1.0000   1.0000   1.0000   1.0000   1.0000   0.0000   0.0000   0.0000
     0.0000   0.0000

          k =-0.4167 0.4167 0.4167 (   105 PWs)   bands (ev):

     8.4092  10.4932  10.4932  11.7595  11.8174  11.8174  19.2064  35.9717
    36.1061  36.1061

     occupation numbers 
     1.0000   1.0000   1.0000   1.0000   1.0000   1.0000   0.0000   0.0000
     0.0000   0.0000

          k = 0.4167-0.4167 1.2500 (   103 PWs)   bands (ev):

     9.0062  10.1586  10.7205  10.7521  11.7979  14.7086  18.1526  28.7288
    33.1267  35.0925

     occupation numbers 
     1.0000   1.0000   1.0000   1.0000   1.0000   0.0000   0.0000   0.0000
     0.0000   0.0000

     the Fermi energy is    13.5547 ev

!    total energy              =     -87.86856197 Ry
     Harris-Foulkes estimate   =     -87.86856198 Ry
     estimated scf accuracy    <       0.00000001 Ry

     The total energy is the sum of the following terms:

     one-electron contribution =     -12.16709394 Ry
     hartree contribution      =      19.56145732 Ry
     xc contribution           =     -14.05049966 Ry
     ewald contribution        =     -81.21214903 Ry
     smearing contrib. (-TS)   =      -0.00027666 Ry

     convergence has been achieved in   6 iterations

     Writing output data file Cu_exc2.save

     init_run     :      0.84s CPU      0.86s WALL (       1 calls)
     electrons    :      1.55s CPU      1.64s WALL (       1 calls)

     Called by init_run:
     wfcinit      :      0.04s CPU      0.05s WALL (       1 calls)
     potinit      :      0.00s CPU      0.00s WALL (       1 calls)

     Called by electrons:
     c_bands      :      1.25s CPU      1.32s WALL (       6 calls)
     sum_band     :      0.23s CPU      0.25s WALL (       6 calls)
     v_of_rho     :      0.01s CPU      0.01s WALL (       7 calls)
     v_h          :      0.00s CPU      0.00s WALL (       7 calls)
     v_xc         :      0.00s CPU      0.01s WALL (       7 calls)
     newd         :      0.06s CPU      0.07s WALL (       7 calls)
     mix_rho      :      0.01s CPU      0.00s WALL (       6 calls)

     Called by c_bands:
     init_us_2    :      0.04s CPU      0.06s WALL (     364 calls)
     cegterg      :      1.18s CPU      1.25s WALL (     168 calls)

     Called by sum_band:
     sum_band:bec :      0.01s CPU      0.00s WALL (     168 calls)
     addusdens    :      0.04s CPU      0.05s WALL (       6 calls)

     Called by *egterg:
     h_psi        :      0.67s CPU      0.77s WALL (     519 calls)
     s_psi        :      0.06s CPU      0.04s WALL (     519 calls)
     g_psi        :      0.01s CPU      0.01s WALL (     323 calls)
     cdiaghg      :      0.26s CPU      0.28s WALL (     491 calls)
     cegterg:over :      0.08s CPU      0.07s WALL (     323 calls)
     cegterg:upda :      0.06s CPU      0.04s WALL (     323 calls)
     cegterg:last :      0.03s CPU      0.03s WALL (     168 calls)

     Called by h_psi:
     h_psi:vloc   :      0.56s CPU      0.67s WALL (     519 calls)
     h_psi:vnl    :      0.11s CPU      0.09s WALL (     519 calls)
     add_vuspsi   :      0.08s CPU      0.04s WALL (     519 calls)

     General routines
     calbec       :      0.04s CPU      0.06s WALL (     687 calls)
     fft          :      0.00s CPU      0.00s WALL (      40 calls)
     fftw         :      0.60s CPU      0.65s WALL (   10410 calls)
     davcio       :      0.00s CPU      0.00s WALL (      28 calls)

     Parallel routines
     fft_scatter  :      0.07s CPU      0.09s WALL (   10450 calls)

     PWSCF        :     2.84s CPU         2.97s WALL


   This run was terminated on:  20:29:14  18Feb2020            

=------------------------------------------------------------------------------=
   JOB DONE.
=------------------------------------------------------------------------------=
