
     Program PWSCF v.5.1 starts on 18Feb2020 at 21:17:35 

     This program is part of the open-source Quantum ESPRESSO suite
     for quantum simulation of materials; please cite
         "P. Giannozzi et al., J. Phys.:Condens. Matter 21 395502 (2009);
          URL http://www.quantum-espresso.org", 
     in publications or presentations arising from this work. More details at
     http://www.quantum-espresso.org/quote

     Parallel version (MPI), running on     1 processors
     Waiting for input...
     Reading input from standard input

     Current dimensions of program PWSCF are:
     Max number of different atomic species (ntypx) = 10
     Max number of k-points (npk) =  40000
     Max angular momentum in pseudopotentials (lmaxx) =  3
               file Cu.pz-d-rrkjus.UPF: wavefunction(s)  3D renormalized

     Subspace diagonalization in iterative solution of the eigenvalue problem:
     a serial algorithm will be used


     G-vector sticks info
     --------------------
     sticks:   dense  smooth     PW     G-vecs:    dense   smooth      PW
     Sum         199     199     85                 1807     1807     459



     bravais-lattice index     =            2
     lattice parameter (alat)  =       6.8311  a.u.
     unit-cell volume          =      79.6915 (a.u.)^3
     number of atoms/cell      =            1
     number of atomic types    =            1
     number of electrons       =        11.00
     number of Kohn-Sham states=           10
     kinetic-energy cutoff     =      30.0000  Ry
     charge density cutoff     =     120.0000  Ry
     convergence threshold     =      1.0E-06
     mixing beta               =       0.7000
     number of iterations used =            8  plain     mixing
     Exchange-correlation      =  SLA  PZ   NOGX NOGC ( 1  1  0  0 0)

     celldm(1)=   6.831100  celldm(2)=   0.000000  celldm(3)=   0.000000
     celldm(4)=   0.000000  celldm(5)=   0.000000  celldm(6)=   0.000000

     crystal axes: (cart. coord. in units of alat)
               a(1) = (  -0.500000   0.000000   0.500000 )  
               a(2) = (   0.000000   0.500000   0.500000 )  
               a(3) = (  -0.500000   0.500000   0.000000 )  

     reciprocal axes: (cart. coord. in units 2 pi/alat)
               b(1) = ( -1.000000 -1.000000  1.000000 )  
               b(2) = (  1.000000  1.000000  1.000000 )  
               b(3) = ( -1.000000  1.000000 -1.000000 )  


     PseudoPot. # 1 for Cu read from file:
     ../pseudo/Cu.pz-d-rrkjus.UPF
     MD5 check sum: fd38ae683e239c95a66f426e1f8e5fc7
     Pseudo is Ultrasoft, Zval = 11.0
     Generated by new atomic code, or converted to UPF format
     Using radial grid of  899 points,  3 beta functions with: 
                l(1) =   2
                l(2) =   2
                l(3) =   1
     Q(r) pseudized with 0 coefficients 


     atomic species   valence    mass     pseudopotential
        Cu            11.00    63.54000     Cu( 1.00)

     48 Sym. Ops., with inversion, found


                                    s                        frac. trans.

      isym =  1     identity                                     

 cryst.   s( 1) = (     1          0          0      )
                  (     0          1          0      )
                  (     0          0          1      )

 cart.    s( 1) = (  1.0000000  0.0000000  0.0000000 )
                  (  0.0000000  1.0000000  0.0000000 )
                  (  0.0000000  0.0000000  1.0000000 )


      isym =  2     180 deg rotation - cart. axis [0,0,1]        

 cryst.   s( 2) = (     0          1         -1      )
                  (     1          0         -1      )
                  (     0          0         -1      )

 cart.    s( 2) = ( -1.0000000  0.0000000  0.0000000 )
                  (  0.0000000 -1.0000000  0.0000000 )
                  (  0.0000000  0.0000000  1.0000000 )


      isym =  3     180 deg rotation - cart. axis [0,1,0]        

 cryst.   s( 3) = (    -1          0          0      )
                  (    -1          0          1      )
                  (    -1          1          0      )

 cart.    s( 3) = ( -1.0000000  0.0000000  0.0000000 )
                  (  0.0000000  1.0000000  0.0000000 )
                  (  0.0000000  0.0000000 -1.0000000 )


      isym =  4     180 deg rotation - cart. axis [1,0,0]        

 cryst.   s( 4) = (     0         -1          1      )
                  (     0         -1          0      )
                  (     1         -1          0      )

 cart.    s( 4) = (  1.0000000  0.0000000  0.0000000 )
                  (  0.0000000 -1.0000000  0.0000000 )
                  (  0.0000000  0.0000000 -1.0000000 )


      isym =  5     180 deg rotation - cart. axis [1,1,0]        

 cryst.   s( 5) = (     0         -1          0      )
                  (    -1          0          0      )
                  (     0          0         -1      )

 cart.    s( 5) = (  0.0000000  1.0000000  0.0000000 )
                  (  1.0000000  0.0000000  0.0000000 )
                  (  0.0000000  0.0000000 -1.0000000 )


      isym =  6     180 deg rotation - cart. axis [1,-1,0]       

 cryst.   s( 6) = (    -1          0          1      )
                  (     0         -1          1      )
                  (     0          0          1      )

 cart.    s( 6) = (  0.0000000 -1.0000000  0.0000000 )
                  ( -1.0000000  0.0000000  0.0000000 )
                  (  0.0000000  0.0000000 -1.0000000 )


      isym =  7      90 deg rotation - cart. axis [0,0,-1]       

 cryst.   s( 7) = (     0          1          0      )
                  (     0          1         -1      )
                  (    -1          1          0      )

 cart.    s( 7) = (  0.0000000  1.0000000  0.0000000 )
                  ( -1.0000000  0.0000000  0.0000000 )
                  (  0.0000000  0.0000000  1.0000000 )


      isym =  8      90 deg rotation - cart. axis [0,0,1]        

 cryst.   s( 8) = (     1          0         -1      )
                  (     1          0          0      )
                  (     1         -1          0      )

 cart.    s( 8) = (  0.0000000 -1.0000000  0.0000000 )
                  (  1.0000000  0.0000000  0.0000000 )
                  (  0.0000000  0.0000000  1.0000000 )


      isym =  9     180 deg rotation - cart. axis [1,0,1]        

 cryst.   s( 9) = (    -1          0          0      )
                  (     0          0         -1      )
                  (     0         -1          0      )

 cart.    s( 9) = (  0.0000000  0.0000000  1.0000000 )
                  (  0.0000000 -1.0000000  0.0000000 )
                  (  1.0000000  0.0000000  0.0000000 )


      isym = 10     180 deg rotation - cart. axis [-1,0,1]       

 cryst.   s(10) = (     1          0          0      )
                  (     1         -1          0      )
                  (     1          0         -1      )

 cart.    s(10) = (  0.0000000  0.0000000 -1.0000000 )
                  (  0.0000000 -1.0000000  0.0000000 )
                  ( -1.0000000  0.0000000  0.0000000 )


      isym = 11      90 deg rotation - cart. axis [0,1,0]        

 cryst.   s(11) = (     0          1         -1      )
                  (    -1          1          0      )
                  (     0          1          0      )

 cart.    s(11) = (  0.0000000  0.0000000  1.0000000 )
                  (  0.0000000  1.0000000  0.0000000 )
                  ( -1.0000000  0.0000000  0.0000000 )


      isym = 12      90 deg rotation - cart. axis [0,-1,0]       

 cryst.   s(12) = (     0         -1          1      )
                  (     0          0          1      )
                  (    -1          0          1      )

 cart.    s(12) = (  0.0000000  0.0000000 -1.0000000 )
                  (  0.0000000  1.0000000  0.0000000 )
                  (  1.0000000  0.0000000  0.0000000 )


      isym = 13     180 deg rotation - cart. axis [0,1,1]        

 cryst.   s(13) = (    -1          1          0      )
                  (     0          1          0      )
                  (     0          1         -1      )

 cart.    s(13) = ( -1.0000000  0.0000000  0.0000000 )
                  (  0.0000000  0.0000000  1.0000000 )
                  (  0.0000000  1.0000000  0.0000000 )


      isym = 14     180 deg rotation - cart. axis [0,1,-1]       

 cryst.   s(14) = (     0          0         -1      )
                  (     0         -1          0      )
                  (    -1          0          0      )

 cart.    s(14) = ( -1.0000000  0.0000000  0.0000000 )
                  (  0.0000000  0.0000000 -1.0000000 )
                  (  0.0000000 -1.0000000  0.0000000 )


      isym = 15      90 deg rotation - cart. axis [-1,0,0]       

 cryst.   s(15) = (     0          0          1      )
                  (    -1          0          1      )
                  (     0         -1          1      )

 cart.    s(15) = (  1.0000000  0.0000000  0.0000000 )
                  (  0.0000000  0.0000000  1.0000000 )
                  (  0.0000000 -1.0000000  0.0000000 )


      isym = 16      90 deg rotation - cart. axis [1,0,0]        

 cryst.   s(16) = (     1         -1          0      )
                  (     1          0         -1      )
                  (     1          0          0      )

 cart.    s(16) = (  1.0000000  0.0000000  0.0000000 )
                  (  0.0000000  0.0000000 -1.0000000 )
                  (  0.0000000  1.0000000  0.0000000 )


      isym = 17     120 deg rotation - cart. axis [-1,-1,-1]     

 cryst.   s(17) = (    -1          0          1      )
                  (    -1          1          0      )
                  (    -1          0          0      )

 cart.    s(17) = (  0.0000000  1.0000000  0.0000000 )
                  (  0.0000000  0.0000000  1.0000000 )
                  (  1.0000000  0.0000000  0.0000000 )


      isym = 18     120 deg rotation - cart. axis [-1,1,1]       

 cryst.   s(18) = (     0          1          0      )
                  (     0          0          1      )
                  (     1          0          0      )

 cart.    s(18) = (  0.0000000 -1.0000000  0.0000000 )
                  (  0.0000000  0.0000000  1.0000000 )
                  ( -1.0000000  0.0000000  0.0000000 )


      isym = 19     120 deg rotation - cart. axis [1,1,-1]       

 cryst.   s(19) = (     1          0         -1      )
                  (     0          0         -1      )
                  (     0          1         -1      )

 cart.    s(19) = (  0.0000000  1.0000000  0.0000000 )
                  (  0.0000000  0.0000000 -1.0000000 )
                  ( -1.0000000  0.0000000  0.0000000 )


      isym = 20     120 deg rotation - cart. axis [1,-1,1]       

 cryst.   s(20) = (     0         -1          0      )
                  (     1         -1          0      )
                  (     0         -1          1      )

 cart.    s(20) = (  0.0000000 -1.0000000  0.0000000 )
                  (  0.0000000  0.0000000 -1.0000000 )
                  (  1.0000000  0.0000000  0.0000000 )


      isym = 21     120 deg rotation - cart. axis [1,1,1]        

 cryst.   s(21) = (     0          0         -1      )
                  (     0          1         -1      )
                  (     1          0         -1      )

 cart.    s(21) = (  0.0000000  0.0000000  1.0000000 )
                  (  1.0000000  0.0000000  0.0000000 )
                  (  0.0000000  1.0000000  0.0000000 )


      isym = 22     120 deg rotation - cart. axis [-1,1,-1]      

 cryst.   s(22) = (    -1          1          0      )
                  (    -1          0          0      )
                  (    -1          0          1      )

 cart.    s(22) = (  0.0000000  0.0000000  1.0000000 )
                  ( -1.0000000  0.0000000  0.0000000 )
                  (  0.0000000 -1.0000000  0.0000000 )


      isym = 23     120 deg rotation - cart. axis [1,-1,-1]      

 cryst.   s(23) = (     0          0          1      )
                  (     1          0          0      )
                  (     0          1          0      )

 cart.    s(23) = (  0.0000000  0.0000000 -1.0000000 )
                  ( -1.0000000  0.0000000  0.0000000 )
                  (  0.0000000  1.0000000  0.0000000 )


      isym = 24     120 deg rotation - cart. axis [-1,-1,1]      

 cryst.   s(24) = (     1         -1          0      )
                  (     0         -1          1      )
                  (     0         -1          0      )

 cart.    s(24) = (  0.0000000  0.0000000 -1.0000000 )
                  (  1.0000000  0.0000000  0.0000000 )
                  (  0.0000000 -1.0000000  0.0000000 )


      isym = 25     inversion                                    

 cryst.   s(25) = (    -1          0          0      )
                  (     0         -1          0      )
                  (     0          0         -1      )

 cart.    s(25) = ( -1.0000000  0.0000000  0.0000000 )
                  (  0.0000000 -1.0000000  0.0000000 )
                  (  0.0000000  0.0000000 -1.0000000 )


      isym = 26     inv. 180 deg rotation - cart. axis [0,0,1]   

 cryst.   s(26) = (     0         -1          1      )
                  (    -1          0          1      )
                  (     0          0          1      )

 cart.    s(26) = (  1.0000000  0.0000000  0.0000000 )
                  (  0.0000000  1.0000000  0.0000000 )
                  (  0.0000000  0.0000000 -1.0000000 )


      isym = 27     inv. 180 deg rotation - cart. axis [0,1,0]   

 cryst.   s(27) = (     1          0          0      )
                  (     1          0         -1      )
                  (     1         -1          0      )

 cart.    s(27) = (  1.0000000  0.0000000  0.0000000 )
                  (  0.0000000 -1.0000000  0.0000000 )
                  (  0.0000000  0.0000000  1.0000000 )


      isym = 28     inv. 180 deg rotation - cart. axis [1,0,0]   

 cryst.   s(28) = (     0          1         -1      )
                  (     0          1          0      )
                  (    -1          1          0      )

 cart.    s(28) = ( -1.0000000  0.0000000  0.0000000 )
                  (  0.0000000  1.0000000  0.0000000 )
                  (  0.0000000  0.0000000  1.0000000 )


      isym = 29     inv. 180 deg rotation - cart. axis [1,1,0]   

 cryst.   s(29) = (     0          1          0      )
                  (     1          0          0      )
                  (     0          0          1      )

 cart.    s(29) = (  0.0000000 -1.0000000  0.0000000 )
                  ( -1.0000000  0.0000000  0.0000000 )
                  (  0.0000000  0.0000000  1.0000000 )


      isym = 30     inv. 180 deg rotation - cart. axis [1,-1,0]  

 cryst.   s(30) = (     1          0         -1      )
                  (     0          1         -1      )
                  (     0          0         -1      )

 cart.    s(30) = (  0.0000000  1.0000000  0.0000000 )
                  (  1.0000000  0.0000000  0.0000000 )
                  (  0.0000000  0.0000000  1.0000000 )


      isym = 31     inv.  90 deg rotation - cart. axis [0,0,-1]  

 cryst.   s(31) = (     0         -1          0      )
                  (     0         -1          1      )
                  (     1         -1          0      )

 cart.    s(31) = (  0.0000000 -1.0000000  0.0000000 )
                  (  1.0000000  0.0000000  0.0000000 )
                  (  0.0000000  0.0000000 -1.0000000 )


      isym = 32     inv.  90 deg rotation - cart. axis [0,0,1]   

 cryst.   s(32) = (    -1          0          1      )
                  (    -1          0          0      )
                  (    -1          1          0      )

 cart.    s(32) = (  0.0000000  1.0000000  0.0000000 )
                  ( -1.0000000  0.0000000  0.0000000 )
                  (  0.0000000  0.0000000 -1.0000000 )


      isym = 33     inv. 180 deg rotation - cart. axis [1,0,1]   

 cryst.   s(33) = (     1          0          0      )
                  (     0          0          1      )
                  (     0          1          0      )

 cart.    s(33) = (  0.0000000  0.0000000 -1.0000000 )
                  (  0.0000000  1.0000000  0.0000000 )
                  ( -1.0000000  0.0000000  0.0000000 )


      isym = 34     inv. 180 deg rotation - cart. axis [-1,0,1]  

 cryst.   s(34) = (    -1          0          0      )
                  (    -1          1          0      )
                  (    -1          0          1      )

 cart.    s(34) = (  0.0000000  0.0000000  1.0000000 )
                  (  0.0000000  1.0000000  0.0000000 )
                  (  1.0000000  0.0000000  0.0000000 )


      isym = 35     inv.  90 deg rotation - cart. axis [0,1,0]   

 cryst.   s(35) = (     0         -1          1      )
                  (     1         -1          0      )
                  (     0         -1          0      )

 cart.    s(35) = (  0.0000000  0.0000000 -1.0000000 )
                  (  0.0000000 -1.0000000  0.0000000 )
                  (  1.0000000  0.0000000  0.0000000 )


      isym = 36     inv.  90 deg rotation - cart. axis [0,-1,0]  

 cryst.   s(36) = (     0          1         -1      )
                  (     0          0         -1      )
                  (     1          0         -1      )

 cart.    s(36) = (  0.0000000  0.0000000  1.0000000 )
                  (  0.0000000 -1.0000000  0.0000000 )
                  ( -1.0000000  0.0000000  0.0000000 )


      isym = 37     inv. 180 deg rotation - cart. axis [0,1,1]   

 cryst.   s(37) = (     1         -1          0      )
                  (     0         -1          0      )
                  (     0         -1          1      )

 cart.    s(37) = (  1.0000000  0.0000000  0.0000000 )
                  (  0.0000000  0.0000000 -1.0000000 )
                  (  0.0000000 -1.0000000  0.0000000 )


      isym = 38     inv. 180 deg rotation - cart. axis [0,1,-1]  

 cryst.   s(38) = (     0          0          1      )
                  (     0          1          0      )
                  (     1          0          0      )

 cart.    s(38) = (  1.0000000  0.0000000  0.0000000 )
                  (  0.0000000  0.0000000  1.0000000 )
                  (  0.0000000  1.0000000  0.0000000 )


      isym = 39     inv.  90 deg rotation - cart. axis [-1,0,0]  

 cryst.   s(39) = (     0          0         -1      )
                  (     1          0         -1      )
                  (     0          1         -1      )

 cart.    s(39) = ( -1.0000000  0.0000000  0.0000000 )
                  (  0.0000000  0.0000000 -1.0000000 )
                  (  0.0000000  1.0000000  0.0000000 )


      isym = 40     inv.  90 deg rotation - cart. axis [1,0,0]   

 cryst.   s(40) = (    -1          1          0      )
                  (    -1          0          1      )
                  (    -1          0          0      )

 cart.    s(40) = ( -1.0000000  0.0000000  0.0000000 )
                  (  0.0000000  0.0000000  1.0000000 )
                  (  0.0000000 -1.0000000  0.0000000 )


      isym = 41     inv. 120 deg rotation - cart. axis [-1,-1,-1]

 cryst.   s(41) = (     1          0         -1      )
                  (     1         -1          0      )
                  (     1          0          0      )

 cart.    s(41) = (  0.0000000 -1.0000000  0.0000000 )
                  (  0.0000000  0.0000000 -1.0000000 )
                  ( -1.0000000  0.0000000  0.0000000 )


      isym = 42     inv. 120 deg rotation - cart. axis [-1,1,1]  

 cryst.   s(42) = (     0         -1          0      )
                  (     0          0         -1      )
                  (    -1          0          0      )

 cart.    s(42) = (  0.0000000  1.0000000  0.0000000 )
                  (  0.0000000  0.0000000 -1.0000000 )
                  (  1.0000000  0.0000000  0.0000000 )


      isym = 43     inv. 120 deg rotation - cart. axis [1,1,-1]  

 cryst.   s(43) = (    -1          0          1      )
                  (     0          0          1      )
                  (     0         -1          1      )

 cart.    s(43) = (  0.0000000 -1.0000000  0.0000000 )
                  (  0.0000000  0.0000000  1.0000000 )
                  (  1.0000000  0.0000000  0.0000000 )


      isym = 44     inv. 120 deg rotation - cart. axis [1,-1,1]  

 cryst.   s(44) = (     0          1          0      )
                  (    -1          1          0      )
                  (     0          1         -1      )

 cart.    s(44) = (  0.0000000  1.0000000  0.0000000 )
                  (  0.0000000  0.0000000  1.0000000 )
                  ( -1.0000000  0.0000000  0.0000000 )


      isym = 45     inv. 120 deg rotation - cart. axis [1,1,1]   

 cryst.   s(45) = (     0          0          1      )
                  (     0         -1          1      )
                  (    -1          0          1      )

 cart.    s(45) = (  0.0000000  0.0000000 -1.0000000 )
                  ( -1.0000000  0.0000000  0.0000000 )
                  (  0.0000000 -1.0000000  0.0000000 )


      isym = 46     inv. 120 deg rotation - cart. axis [-1,1,-1] 

 cryst.   s(46) = (     1         -1          0      )
                  (     1          0          0      )
                  (     1          0         -1      )

 cart.    s(46) = (  0.0000000  0.0000000 -1.0000000 )
                  (  1.0000000  0.0000000  0.0000000 )
                  (  0.0000000  1.0000000  0.0000000 )


      isym = 47     inv. 120 deg rotation - cart. axis [1,-1,-1] 

 cryst.   s(47) = (     0          0         -1      )
                  (    -1          0          0      )
                  (     0         -1          0      )

 cart.    s(47) = (  0.0000000  0.0000000  1.0000000 )
                  (  1.0000000  0.0000000  0.0000000 )
                  (  0.0000000 -1.0000000  0.0000000 )


      isym = 48     inv. 120 deg rotation - cart. axis [-1,-1,1] 

 cryst.   s(48) = (    -1          1          0      )
                  (     0          1         -1      )
                  (     0          1          0      )

 cart.    s(48) = (  0.0000000  0.0000000  1.0000000 )
                  ( -1.0000000  0.0000000  0.0000000 )
                  (  0.0000000  1.0000000  0.0000000 )


     point group O_h (m-3m) 
     there are 10 classes
     the character table:

       E     8C3   6C2'  6C4   3C2   i     6S4   8S6   3s_h  6s_d 
A_1g   1.00  1.00  1.00  1.00  1.00  1.00  1.00  1.00  1.00  1.00
A_2g   1.00  1.00 -1.00 -1.00  1.00  1.00 -1.00  1.00  1.00 -1.00
E_g    2.00 -1.00  0.00  0.00  2.00  2.00  0.00 -1.00  2.00  0.00
T_1g   3.00  0.00 -1.00  1.00 -1.00  3.00  1.00  0.00 -1.00 -1.00
T_2g   3.00  0.00  1.00 -1.00 -1.00  3.00 -1.00  0.00 -1.00  1.00
A_1u   1.00  1.00  1.00  1.00  1.00 -1.00 -1.00 -1.00 -1.00 -1.00
A_2u   1.00  1.00 -1.00 -1.00  1.00 -1.00  1.00 -1.00 -1.00  1.00
E_u    2.00 -1.00  0.00  0.00  2.00 -2.00  0.00  1.00 -2.00  0.00
T_1u   3.00  0.00 -1.00  1.00 -1.00 -3.00 -1.00  0.00  1.00  1.00
T_2u   3.00  0.00  1.00 -1.00 -1.00 -3.00  1.00  0.00  1.00 -1.00

     the symmetry operations in each class:
     E        1
     3C2      2    4    3
     6C2'     5    6   14   13   10    9
     6C4      7    8   15   16   12   11
     8C3     17   19   20   18   24   21   22   23
     i       25
     3s_h    26   28   27
     6s_d    29   30   38   37   34   33
     6S4     31   32   39   40   36   35
     8S6     41   43   44   42   48   45   46   47

   Cartesian axes

     site n.     atom                  positions (alat units)
         1           Cu  tau(   1) = (   0.0000000   0.0000000   0.0000000  )

   Crystallographic axes

     site n.     atom                  positions (cryst. coord.)
         1           Cu  tau(   1) = (  0.0000000  0.0000000  0.0000000  )

     number of k points=   408  Marzari-Vanderbilt smearing, width (Ry)=  0.0200
                       cart. coord. in units 2pi/alat
        k(    1) = (  -0.0312500   0.0312500   0.0312500), wk =   0.0009766
        k(    2) = (  -0.0937500   0.0937500  -0.0312500), wk =   0.0029297
        k(    3) = (  -0.1562500   0.1562500  -0.0937500), wk =   0.0029297
        k(    4) = (  -0.2187500   0.2187500  -0.1562500), wk =   0.0029297
        k(    5) = (  -0.2812500   0.2812500  -0.2187500), wk =   0.0029297
        k(    6) = (  -0.3437500   0.3437500  -0.2812500), wk =   0.0029297
        k(    7) = (  -0.4062500   0.4062500  -0.3437500), wk =   0.0029297
        k(    8) = (  -0.4687500   0.4687500  -0.4062500), wk =   0.0029297
        k(    9) = (   0.4687500  -0.4687500   0.5312500), wk =   0.0029297
        k(   10) = (   0.4062500  -0.4062500   0.4687500), wk =   0.0029297
        k(   11) = (   0.3437500  -0.3437500   0.4062500), wk =   0.0029297
        k(   12) = (   0.2812500  -0.2812500   0.3437500), wk =   0.0029297
        k(   13) = (   0.2187500  -0.2187500   0.2812500), wk =   0.0029297
        k(   14) = (   0.1562500  -0.1562500   0.2187500), wk =   0.0029297
        k(   15) = (   0.0937500  -0.0937500   0.1562500), wk =   0.0029297
        k(   16) = (   0.0312500  -0.0312500   0.0937500), wk =   0.0029297
        k(   17) = (  -0.0312500   0.1562500   0.0312500), wk =   0.0029297
        k(   18) = (  -0.0937500   0.2187500  -0.0312500), wk =   0.0058594
        k(   19) = (  -0.1562500   0.2812500  -0.0937500), wk =   0.0058594
        k(   20) = (  -0.2187500   0.3437500  -0.1562500), wk =   0.0058594
        k(   21) = (  -0.2812500   0.4062500  -0.2187500), wk =   0.0058594
        k(   22) = (  -0.3437500   0.4687500  -0.2812500), wk =   0.0058594
        k(   23) = (  -0.4062500   0.5312500  -0.3437500), wk =   0.0058594
        k(   24) = (   0.5312500  -0.4062500   0.5937500), wk =   0.0058594
        k(   25) = (   0.4687500  -0.3437500   0.5312500), wk =   0.0058594
        k(   26) = (   0.4062500  -0.2812500   0.4687500), wk =   0.0058594
        k(   27) = (   0.3437500  -0.2187500   0.4062500), wk =   0.0058594
        k(   28) = (   0.2812500  -0.1562500   0.3437500), wk =   0.0058594
        k(   29) = (   0.2187500  -0.0937500   0.2812500), wk =   0.0058594
        k(   30) = (   0.1562500  -0.0312500   0.2187500), wk =   0.0058594
        k(   31) = (   0.0937500   0.0312500   0.1562500), wk =   0.0058594
        k(   32) = (  -0.0312500   0.2812500   0.0312500), wk =   0.0029297
        k(   33) = (  -0.0937500   0.3437500  -0.0312500), wk =   0.0058594
        k(   34) = (  -0.1562500   0.4062500  -0.0937500), wk =   0.0058594
        k(   35) = (  -0.2187500   0.4687500  -0.1562500), wk =   0.0058594
        k(   36) = (  -0.2812500   0.5312500  -0.2187500), wk =   0.0058594
        k(   37) = (  -0.3437500   0.5937500  -0.2812500), wk =   0.0058594
        k(   38) = (   0.5937500  -0.3437500   0.6562500), wk =   0.0058594
        k(   39) = (   0.5312500  -0.2812500   0.5937500), wk =   0.0058594
        k(   40) = (   0.4687500  -0.2187500   0.5312500), wk =   0.0058594
        k(   41) = (   0.4062500  -0.1562500   0.4687500), wk =   0.0058594
        k(   42) = (   0.3437500  -0.0937500   0.4062500), wk =   0.0058594
        k(   43) = (   0.2812500  -0.0312500   0.3437500), wk =   0.0058594
        k(   44) = (   0.2187500   0.0312500   0.2812500), wk =   0.0058594
        k(   45) = (   0.1562500   0.0937500   0.2187500), wk =   0.0058594
        k(   46) = (  -0.0312500   0.4062500   0.0312500), wk =   0.0029297
        k(   47) = (  -0.0937500   0.4687500  -0.0312500), wk =   0.0058594
        k(   48) = (  -0.1562500   0.5312500  -0.0937500), wk =   0.0058594
        k(   49) = (  -0.2187500   0.5937500  -0.1562500), wk =   0.0058594
        k(   50) = (  -0.2812500   0.6562500  -0.2187500), wk =   0.0058594
        k(   51) = (   0.6562500  -0.2812500   0.7187500), wk =   0.0058594
        k(   52) = (   0.5937500  -0.2187500   0.6562500), wk =   0.0058594
        k(   53) = (   0.5312500  -0.1562500   0.5937500), wk =   0.0058594
        k(   54) = (   0.4687500  -0.0937500   0.5312500), wk =   0.0058594
        k(   55) = (   0.4062500  -0.0312500   0.4687500), wk =   0.0058594
        k(   56) = (   0.3437500   0.0312500   0.4062500), wk =   0.0058594
        k(   57) = (   0.2812500   0.0937500   0.3437500), wk =   0.0058594
        k(   58) = (   0.2187500   0.1562500   0.2812500), wk =   0.0058594
        k(   59) = (  -0.0312500   0.5312500   0.0312500), wk =   0.0029297
        k(   60) = (  -0.0937500   0.5937500  -0.0312500), wk =   0.0058594
        k(   61) = (  -0.1562500   0.6562500  -0.0937500), wk =   0.0058594
        k(   62) = (  -0.2187500   0.7187500  -0.1562500), wk =   0.0058594
        k(   63) = (   0.7187500  -0.2187500   0.7812500), wk =   0.0058594
        k(   64) = (   0.6562500  -0.1562500   0.7187500), wk =   0.0058594
        k(   65) = (   0.5937500  -0.0937500   0.6562500), wk =   0.0058594
        k(   66) = (   0.5312500  -0.0312500   0.5937500), wk =   0.0058594
        k(   67) = (   0.4687500   0.0312500   0.5312500), wk =   0.0058594
        k(   68) = (   0.4062500   0.0937500   0.4687500), wk =   0.0058594
        k(   69) = (   0.3437500   0.1562500   0.4062500), wk =   0.0058594
        k(   70) = (   0.2812500   0.2187500   0.3437500), wk =   0.0058594
        k(   71) = (  -0.0312500   0.6562500   0.0312500), wk =   0.0029297
        k(   72) = (  -0.0937500   0.7187500  -0.0312500), wk =   0.0058594
        k(   73) = (  -0.1562500   0.7812500  -0.0937500), wk =   0.0058594
        k(   74) = (   0.7812500  -0.1562500   0.8437500), wk =   0.0058594
        k(   75) = (   0.7187500  -0.0937500   0.7812500), wk =   0.0058594
        k(   76) = (   0.6562500  -0.0312500   0.7187500), wk =   0.0058594
        k(   77) = (   0.5937500   0.0312500   0.6562500), wk =   0.0058594
        k(   78) = (   0.5312500   0.0937500   0.5937500), wk =   0.0058594
        k(   79) = (   0.4687500   0.1562500   0.5312500), wk =   0.0058594
        k(   80) = (   0.4062500   0.2187500   0.4687500), wk =   0.0058594
        k(   81) = (   0.3437500   0.2812500   0.4062500), wk =   0.0058594
        k(   82) = (  -0.0312500   0.7812500   0.0312500), wk =   0.0029297
        k(   83) = (  -0.0937500   0.8437500  -0.0312500), wk =   0.0058594
        k(   84) = (   0.8437500  -0.0937500   0.9062500), wk =   0.0058594
        k(   85) = (   0.7812500  -0.0312500   0.8437500), wk =   0.0058594
        k(   86) = (   0.7187500   0.0312500   0.7812500), wk =   0.0058594
        k(   87) = (   0.6562500   0.0937500   0.7187500), wk =   0.0058594
        k(   88) = (   0.5937500   0.1562500   0.6562500), wk =   0.0058594
        k(   89) = (   0.5312500   0.2187500   0.5937500), wk =   0.0058594
        k(   90) = (   0.4687500   0.2812500   0.5312500), wk =   0.0058594
        k(   91) = (   0.4062500   0.3437500   0.4687500), wk =   0.0058594
        k(   92) = (  -0.0312500   0.9062500   0.0312500), wk =   0.0029297
        k(   93) = (   0.9062500  -0.0312500   0.9687500), wk =   0.0058594
        k(   94) = (   0.8437500   0.0312500   0.9062500), wk =   0.0058594
        k(   95) = (   0.7812500   0.0937500   0.8437500), wk =   0.0058594
        k(   96) = (   0.7187500   0.1562500   0.7812500), wk =   0.0058594
        k(   97) = (   0.6562500   0.2187500   0.7187500), wk =   0.0058594
        k(   98) = (   0.5937500   0.2812500   0.6562500), wk =   0.0058594
        k(   99) = (   0.5312500   0.3437500   0.5937500), wk =   0.0058594
        k(  100) = (   0.4687500   0.4062500   0.5312500), wk =   0.0058594
        k(  101) = (  -0.0312500  -0.9687500   0.0312500), wk =   0.0029297
        k(  102) = (  -0.0937500  -0.9062500  -0.0312500), wk =   0.0058594
        k(  103) = (  -0.1562500  -0.8437500  -0.0937500), wk =   0.0058594
        k(  104) = (  -0.2187500  -0.7812500  -0.1562500), wk =   0.0058594
        k(  105) = (  -0.2812500  -0.7187500  -0.2187500), wk =   0.0058594
        k(  106) = (  -0.3437500  -0.6562500  -0.2812500), wk =   0.0058594
        k(  107) = (  -0.4062500  -0.5937500  -0.3437500), wk =   0.0058594
        k(  108) = (  -0.0312500  -0.8437500   0.0312500), wk =   0.0029297
        k(  109) = (  -0.0937500  -0.7812500  -0.0312500), wk =   0.0058594
        k(  110) = (  -0.1562500  -0.7187500  -0.0937500), wk =   0.0058594
        k(  111) = (  -0.2187500  -0.6562500  -0.1562500), wk =   0.0058594
        k(  112) = (  -0.2812500  -0.5937500  -0.2187500), wk =   0.0058594
        k(  113) = (  -0.3437500  -0.5312500  -0.2812500), wk =   0.0058594
        k(  114) = (  -0.0312500  -0.7187500   0.0312500), wk =   0.0029297
        k(  115) = (  -0.0937500  -0.6562500  -0.0312500), wk =   0.0058594
        k(  116) = (  -0.1562500  -0.5937500  -0.0937500), wk =   0.0058594
        k(  117) = (  -0.2187500  -0.5312500  -0.1562500), wk =   0.0058594
        k(  118) = (  -0.2812500  -0.4687500  -0.2187500), wk =   0.0058594
        k(  119) = (  -0.0312500  -0.5937500   0.0312500), wk =   0.0029297
        k(  120) = (  -0.0937500  -0.5312500  -0.0312500), wk =   0.0058594
        k(  121) = (  -0.1562500  -0.4687500  -0.0937500), wk =   0.0058594
        k(  122) = (  -0.2187500  -0.4062500  -0.1562500), wk =   0.0058594
        k(  123) = (  -0.0312500  -0.4687500   0.0312500), wk =   0.0029297
        k(  124) = (  -0.0937500  -0.4062500  -0.0312500), wk =   0.0058594
        k(  125) = (  -0.1562500  -0.3437500  -0.0937500), wk =   0.0058594
        k(  126) = (  -0.0312500  -0.3437500   0.0312500), wk =   0.0029297
        k(  127) = (  -0.0937500  -0.2812500  -0.0312500), wk =   0.0058594
        k(  128) = (  -0.0312500  -0.2187500   0.0312500), wk =   0.0029297
        k(  129) = (  -0.0937500   0.0937500   0.0937500), wk =   0.0009766
        k(  130) = (  -0.1562500   0.1562500   0.0312500), wk =   0.0029297
        k(  131) = (  -0.2187500   0.2187500  -0.0312500), wk =   0.0029297
        k(  132) = (  -0.2812500   0.2812500  -0.0937500), wk =   0.0029297
        k(  133) = (  -0.3437500   0.3437500  -0.1562500), wk =   0.0029297
        k(  134) = (  -0.4062500   0.4062500  -0.2187500), wk =   0.0029297
        k(  135) = (  -0.4687500   0.4687500  -0.2812500), wk =   0.0029297
        k(  136) = (   0.4687500  -0.4687500   0.6562500), wk =   0.0029297
        k(  137) = (   0.4062500  -0.4062500   0.5937500), wk =   0.0029297
        k(  138) = (   0.3437500  -0.3437500   0.5312500), wk =   0.0029297
        k(  139) = (   0.2812500  -0.2812500   0.4687500), wk =   0.0029297
        k(  140) = (   0.2187500  -0.2187500   0.4062500), wk =   0.0029297
        k(  141) = (   0.1562500  -0.1562500   0.3437500), wk =   0.0029297
        k(  142) = (   0.0937500  -0.0937500   0.2812500), wk =   0.0029297
        k(  143) = (  -0.0937500   0.2187500   0.0937500), wk =   0.0029297
        k(  144) = (  -0.1562500   0.2812500   0.0312500), wk =   0.0058594
        k(  145) = (  -0.2187500   0.3437500  -0.0312500), wk =   0.0058594
        k(  146) = (  -0.2812500   0.4062500  -0.0937500), wk =   0.0058594
        k(  147) = (  -0.3437500   0.4687500  -0.1562500), wk =   0.0058594
        k(  148) = (  -0.4062500   0.5312500  -0.2187500), wk =   0.0058594
        k(  149) = (   0.5312500  -0.4062500   0.7187500), wk =   0.0058594
        k(  150) = (   0.4687500  -0.3437500   0.6562500), wk =   0.0058594
        k(  151) = (   0.4062500  -0.2812500   0.5937500), wk =   0.0058594
        k(  152) = (   0.3437500  -0.2187500   0.5312500), wk =   0.0058594
        k(  153) = (   0.2812500  -0.1562500   0.4687500), wk =   0.0058594
        k(  154) = (   0.2187500  -0.0937500   0.4062500), wk =   0.0058594
        k(  155) = (   0.1562500  -0.0312500   0.3437500), wk =   0.0058594
        k(  156) = (  -0.0937500   0.3437500   0.0937500), wk =   0.0029297
        k(  157) = (  -0.1562500   0.4062500   0.0312500), wk =   0.0058594
        k(  158) = (  -0.2187500   0.4687500  -0.0312500), wk =   0.0058594
        k(  159) = (  -0.2812500   0.5312500  -0.0937500), wk =   0.0058594
        k(  160) = (  -0.3437500   0.5937500  -0.1562500), wk =   0.0058594
        k(  161) = (   0.5937500  -0.3437500   0.7812500), wk =   0.0058594
        k(  162) = (   0.5312500  -0.2812500   0.7187500), wk =   0.0058594
        k(  163) = (   0.4687500  -0.2187500   0.6562500), wk =   0.0058594
        k(  164) = (   0.4062500  -0.1562500   0.5937500), wk =   0.0058594
        k(  165) = (   0.3437500  -0.0937500   0.5312500), wk =   0.0058594
        k(  166) = (   0.2812500  -0.0312500   0.4687500), wk =   0.0058594
        k(  167) = (   0.2187500   0.0312500   0.4062500), wk =   0.0058594
        k(  168) = (  -0.0937500   0.4687500   0.0937500), wk =   0.0029297
        k(  169) = (  -0.1562500   0.5312500   0.0312500), wk =   0.0058594
        k(  170) = (  -0.2187500   0.5937500  -0.0312500), wk =   0.0058594
        k(  171) = (  -0.2812500   0.6562500  -0.0937500), wk =   0.0058594
        k(  172) = (   0.6562500  -0.2812500   0.8437500), wk =   0.0058594
        k(  173) = (   0.5937500  -0.2187500   0.7812500), wk =   0.0058594
        k(  174) = (   0.5312500  -0.1562500   0.7187500), wk =   0.0058594
        k(  175) = (   0.4687500  -0.0937500   0.6562500), wk =   0.0058594
        k(  176) = (   0.4062500  -0.0312500   0.5937500), wk =   0.0058594
        k(  177) = (   0.3437500   0.0312500   0.5312500), wk =   0.0058594
        k(  178) = (   0.2812500   0.0937500   0.4687500), wk =   0.0058594
        k(  179) = (  -0.0937500   0.5937500   0.0937500), wk =   0.0029297
        k(  180) = (  -0.1562500   0.6562500   0.0312500), wk =   0.0058594
        k(  181) = (  -0.2187500   0.7187500  -0.0312500), wk =   0.0058594
        k(  182) = (   0.7187500  -0.2187500   0.9062500), wk =   0.0058594
        k(  183) = (   0.6562500  -0.1562500   0.8437500), wk =   0.0058594
        k(  184) = (   0.5937500  -0.0937500   0.7812500), wk =   0.0058594
        k(  185) = (   0.5312500  -0.0312500   0.7187500), wk =   0.0058594
        k(  186) = (   0.4687500   0.0312500   0.6562500), wk =   0.0058594
        k(  187) = (   0.4062500   0.0937500   0.5937500), wk =   0.0058594
        k(  188) = (   0.3437500   0.1562500   0.5312500), wk =   0.0058594
        k(  189) = (  -0.0937500   0.7187500   0.0937500), wk =   0.0029297
        k(  190) = (  -0.1562500   0.7812500   0.0312500), wk =   0.0058594
        k(  191) = (   0.7812500  -0.1562500   0.9687500), wk =   0.0058594
        k(  192) = (   0.7187500  -0.0937500   0.9062500), wk =   0.0058594
        k(  193) = (   0.6562500  -0.0312500   0.8437500), wk =   0.0058594
        k(  194) = (   0.5937500   0.0312500   0.7812500), wk =   0.0058594
        k(  195) = (   0.5312500   0.0937500   0.7187500), wk =   0.0058594
        k(  196) = (   0.4687500   0.1562500   0.6562500), wk =   0.0058594
        k(  197) = (   0.4062500   0.2187500   0.5937500), wk =   0.0058594
        k(  198) = (  -0.0937500   0.8437500   0.0937500), wk =   0.0029297
        k(  199) = (   0.8437500  -0.0937500   1.0312500), wk =   0.0058594
        k(  200) = (   0.7812500  -0.0312500   0.9687500), wk =   0.0058594
        k(  201) = (   0.7187500   0.0312500   0.9062500), wk =   0.0058594
        k(  202) = (   0.6562500   0.0937500   0.8437500), wk =   0.0058594
        k(  203) = (   0.5937500   0.1562500   0.7812500), wk =   0.0058594
        k(  204) = (   0.5312500   0.2187500   0.7187500), wk =   0.0058594
        k(  205) = (   0.4687500   0.2812500   0.6562500), wk =   0.0058594
        k(  206) = (  -0.0937500  -1.0312500   0.0937500), wk =   0.0029297
        k(  207) = (  -0.1562500  -0.9687500   0.0312500), wk =   0.0058594
        k(  208) = (  -0.2187500  -0.9062500  -0.0312500), wk =   0.0058594
        k(  209) = (  -0.2812500  -0.8437500  -0.0937500), wk =   0.0058594
        k(  210) = (  -0.3437500  -0.7812500  -0.1562500), wk =   0.0058594
        k(  211) = (  -0.4062500  -0.7187500  -0.2187500), wk =   0.0058594
        k(  212) = (  -0.0937500  -0.9062500   0.0937500), wk =   0.0029297
        k(  213) = (  -0.1562500  -0.8437500   0.0312500), wk =   0.0058594
        k(  214) = (  -0.2187500  -0.7812500  -0.0312500), wk =   0.0058594
        k(  215) = (  -0.2812500  -0.7187500  -0.0937500), wk =   0.0058594
        k(  216) = (  -0.3437500  -0.6562500  -0.1562500), wk =   0.0058594
        k(  217) = (  -0.0937500  -0.7812500   0.0937500), wk =   0.0029297
        k(  218) = (  -0.1562500  -0.7187500   0.0312500), wk =   0.0058594
        k(  219) = (  -0.2187500  -0.6562500  -0.0312500), wk =   0.0058594
        k(  220) = (  -0.2812500  -0.5937500  -0.0937500), wk =   0.0058594
        k(  221) = (  -0.0937500  -0.6562500   0.0937500), wk =   0.0029297
        k(  222) = (  -0.1562500  -0.5937500   0.0312500), wk =   0.0058594
        k(  223) = (  -0.2187500  -0.5312500  -0.0312500), wk =   0.0058594
        k(  224) = (  -0.0937500  -0.5312500   0.0937500), wk =   0.0029297
        k(  225) = (  -0.1562500  -0.4687500   0.0312500), wk =   0.0058594
        k(  226) = (  -0.0937500  -0.4062500   0.0937500), wk =   0.0029297
        k(  227) = (  -0.1562500   0.1562500   0.1562500), wk =   0.0009766
        k(  228) = (  -0.2187500   0.2187500   0.0937500), wk =   0.0029297
        k(  229) = (  -0.2812500   0.2812500   0.0312500), wk =   0.0029297
        k(  230) = (  -0.3437500   0.3437500  -0.0312500), wk =   0.0029297
        k(  231) = (  -0.4062500   0.4062500  -0.0937500), wk =   0.0029297
        k(  232) = (  -0.4687500   0.4687500  -0.1562500), wk =   0.0029297
        k(  233) = (   0.4687500  -0.4687500   0.7812500), wk =   0.0029297
        k(  234) = (   0.4062500  -0.4062500   0.7187500), wk =   0.0029297
        k(  235) = (   0.3437500  -0.3437500   0.6562500), wk =   0.0029297
        k(  236) = (   0.2812500  -0.2812500   0.5937500), wk =   0.0029297
        k(  237) = (   0.2187500  -0.2187500   0.5312500), wk =   0.0029297
        k(  238) = (   0.1562500  -0.1562500   0.4687500), wk =   0.0029297
        k(  239) = (  -0.1562500   0.2812500   0.1562500), wk =   0.0029297
        k(  240) = (  -0.2187500   0.3437500   0.0937500), wk =   0.0058594
        k(  241) = (  -0.2812500   0.4062500   0.0312500), wk =   0.0058594
        k(  242) = (  -0.3437500   0.4687500  -0.0312500), wk =   0.0058594
        k(  243) = (  -0.4062500   0.5312500  -0.0937500), wk =   0.0058594
        k(  244) = (   0.5312500  -0.4062500   0.8437500), wk =   0.0058594
        k(  245) = (   0.4687500  -0.3437500   0.7812500), wk =   0.0058594
        k(  246) = (   0.4062500  -0.2812500   0.7187500), wk =   0.0058594
        k(  247) = (   0.3437500  -0.2187500   0.6562500), wk =   0.0058594
        k(  248) = (   0.2812500  -0.1562500   0.5937500), wk =   0.0058594
        k(  249) = (   0.2187500  -0.0937500   0.5312500), wk =   0.0058594
        k(  250) = (  -0.1562500   0.4062500   0.1562500), wk =   0.0029297
        k(  251) = (  -0.2187500   0.4687500   0.0937500), wk =   0.0058594
        k(  252) = (  -0.2812500   0.5312500   0.0312500), wk =   0.0058594
        k(  253) = (  -0.3437500   0.5937500  -0.0312500), wk =   0.0058594
        k(  254) = (   0.5937500  -0.3437500   0.9062500), wk =   0.0058594
        k(  255) = (   0.5312500  -0.2812500   0.8437500), wk =   0.0058594
        k(  256) = (   0.4687500  -0.2187500   0.7812500), wk =   0.0058594
        k(  257) = (   0.4062500  -0.1562500   0.7187500), wk =   0.0058594
        k(  258) = (   0.3437500  -0.0937500   0.6562500), wk =   0.0058594
        k(  259) = (   0.2812500  -0.0312500   0.5937500), wk =   0.0058594
        k(  260) = (  -0.1562500   0.5312500   0.1562500), wk =   0.0029297
        k(  261) = (  -0.2187500   0.5937500   0.0937500), wk =   0.0058594
        k(  262) = (  -0.2812500   0.6562500   0.0312500), wk =   0.0058594
        k(  263) = (   0.6562500  -0.2812500   0.9687500), wk =   0.0058594
        k(  264) = (   0.5937500  -0.2187500   0.9062500), wk =   0.0058594
        k(  265) = (   0.5312500  -0.1562500   0.8437500), wk =   0.0058594
        k(  266) = (   0.4687500  -0.0937500   0.7812500), wk =   0.0058594
        k(  267) = (   0.4062500  -0.0312500   0.7187500), wk =   0.0058594
        k(  268) = (   0.3437500   0.0312500   0.6562500), wk =   0.0058594
        k(  269) = (  -0.1562500   0.6562500   0.1562500), wk =   0.0029297
        k(  270) = (  -0.2187500   0.7187500   0.0937500), wk =   0.0058594
        k(  271) = (   0.7187500  -0.2187500   1.0312500), wk =   0.0058594
        k(  272) = (   0.6562500  -0.1562500   0.9687500), wk =   0.0058594
        k(  273) = (   0.5937500  -0.0937500   0.9062500), wk =   0.0058594
        k(  274) = (   0.5312500  -0.0312500   0.8437500), wk =   0.0058594
        k(  275) = (   0.4687500   0.0312500   0.7812500), wk =   0.0058594
        k(  276) = (   0.4062500   0.0937500   0.7187500), wk =   0.0058594
        k(  277) = (  -0.1562500   0.7812500   0.1562500), wk =   0.0029297
        k(  278) = (   0.7812500  -0.1562500   1.0937500), wk =   0.0058594
        k(  279) = (   0.7187500  -0.0937500   1.0312500), wk =   0.0058594
        k(  280) = (   0.6562500  -0.0312500   0.9687500), wk =   0.0058594
        k(  281) = (   0.5937500   0.0312500   0.9062500), wk =   0.0058594
        k(  282) = (   0.5312500   0.0937500   0.8437500), wk =   0.0058594
        k(  283) = (   0.4687500   0.1562500   0.7812500), wk =   0.0058594
        k(  284) = (  -0.1562500  -1.0937500   0.1562500), wk =   0.0029297
        k(  285) = (  -0.2187500  -1.0312500   0.0937500), wk =   0.0058594
        k(  286) = (  -0.2812500  -0.9687500   0.0312500), wk =   0.0058594
        k(  287) = (  -0.3437500  -0.9062500  -0.0312500), wk =   0.0058594
        k(  288) = (  -0.4062500  -0.8437500  -0.0937500), wk =   0.0058594
        k(  289) = (  -0.1562500  -0.9687500   0.1562500), wk =   0.0029297
        k(  290) = (  -0.2187500  -0.9062500   0.0937500), wk =   0.0058594
        k(  291) = (  -0.2812500  -0.8437500   0.0312500), wk =   0.0058594
        k(  292) = (  -0.3437500  -0.7812500  -0.0312500), wk =   0.0058594
        k(  293) = (  -0.1562500  -0.8437500   0.1562500), wk =   0.0029297
        k(  294) = (  -0.2187500  -0.7812500   0.0937500), wk =   0.0058594
        k(  295) = (  -0.2812500  -0.7187500   0.0312500), wk =   0.0058594
        k(  296) = (  -0.1562500  -0.7187500   0.1562500), wk =   0.0029297
        k(  297) = (  -0.2187500  -0.6562500   0.0937500), wk =   0.0058594
        k(  298) = (  -0.1562500  -0.5937500   0.1562500), wk =   0.0029297
        k(  299) = (  -0.2187500   0.2187500   0.2187500), wk =   0.0009766
        k(  300) = (  -0.2812500   0.2812500   0.1562500), wk =   0.0029297
        k(  301) = (  -0.3437500   0.3437500   0.0937500), wk =   0.0029297
        k(  302) = (  -0.4062500   0.4062500   0.0312500), wk =   0.0029297
        k(  303) = (  -0.4687500   0.4687500  -0.0312500), wk =   0.0029297
        k(  304) = (   0.4687500  -0.4687500   0.9062500), wk =   0.0029297
        k(  305) = (   0.4062500  -0.4062500   0.8437500), wk =   0.0029297
        k(  306) = (   0.3437500  -0.3437500   0.7812500), wk =   0.0029297
        k(  307) = (   0.2812500  -0.2812500   0.7187500), wk =   0.0029297
        k(  308) = (   0.2187500  -0.2187500   0.6562500), wk =   0.0029297
        k(  309) = (  -0.2187500   0.3437500   0.2187500), wk =   0.0029297
        k(  310) = (  -0.2812500   0.4062500   0.1562500), wk =   0.0058594
        k(  311) = (  -0.3437500   0.4687500   0.0937500), wk =   0.0058594
        k(  312) = (  -0.4062500   0.5312500   0.0312500), wk =   0.0058594
        k(  313) = (   0.5312500  -0.4062500   0.9687500), wk =   0.0058594
        k(  314) = (   0.4687500  -0.3437500   0.9062500), wk =   0.0058594
        k(  315) = (   0.4062500  -0.2812500   0.8437500), wk =   0.0058594
        k(  316) = (   0.3437500  -0.2187500   0.7812500), wk =   0.0058594
        k(  317) = (   0.2812500  -0.1562500   0.7187500), wk =   0.0058594
        k(  318) = (  -0.2187500   0.4687500   0.2187500), wk =   0.0029297
        k(  319) = (  -0.2812500   0.5312500   0.1562500), wk =   0.0058594
        k(  320) = (  -0.3437500   0.5937500   0.0937500), wk =   0.0058594
        k(  321) = (   0.5937500  -0.3437500   1.0312500), wk =   0.0058594
        k(  322) = (   0.5312500  -0.2812500   0.9687500), wk =   0.0058594
        k(  323) = (   0.4687500  -0.2187500   0.9062500), wk =   0.0058594
        k(  324) = (   0.4062500  -0.1562500   0.8437500), wk =   0.0058594
        k(  325) = (   0.3437500  -0.0937500   0.7812500), wk =   0.0058594
        k(  326) = (  -0.2187500   0.5937500   0.2187500), wk =   0.0029297
        k(  327) = (  -0.2812500   0.6562500   0.1562500), wk =   0.0058594
        k(  328) = (   0.6562500  -0.2812500   1.0937500), wk =   0.0058594
        k(  329) = (   0.5937500  -0.2187500   1.0312500), wk =   0.0058594
        k(  330) = (   0.5312500  -0.1562500   0.9687500), wk =   0.0058594
        k(  331) = (   0.4687500  -0.0937500   0.9062500), wk =   0.0058594
        k(  332) = (   0.4062500  -0.0312500   0.8437500), wk =   0.0058594
        k(  333) = (  -0.2187500   0.7187500   0.2187500), wk =   0.0029297
        k(  334) = (   0.7187500  -0.2187500   1.1562500), wk =   0.0058594
        k(  335) = (   0.6562500  -0.1562500   1.0937500), wk =   0.0058594
        k(  336) = (   0.5937500  -0.0937500   1.0312500), wk =   0.0058594
        k(  337) = (   0.5312500  -0.0312500   0.9687500), wk =   0.0058594
        k(  338) = (   0.4687500   0.0312500   0.9062500), wk =   0.0058594
        k(  339) = (  -0.2187500  -1.1562500   0.2187500), wk =   0.0029297
        k(  340) = (  -0.2812500  -1.0937500   0.1562500), wk =   0.0058594
        k(  341) = (  -0.3437500  -1.0312500   0.0937500), wk =   0.0058594
        k(  342) = (  -0.4062500  -0.9687500   0.0312500), wk =   0.0058594
        k(  343) = (  -0.2187500  -1.0312500   0.2187500), wk =   0.0029297
        k(  344) = (  -0.2812500  -0.9687500   0.1562500), wk =   0.0058594
        k(  345) = (  -0.3437500  -0.9062500   0.0937500), wk =   0.0058594
        k(  346) = (  -0.2187500  -0.9062500   0.2187500), wk =   0.0029297
        k(  347) = (  -0.2812500  -0.8437500   0.1562500), wk =   0.0058594
        k(  348) = (  -0.2187500  -0.7812500   0.2187500), wk =   0.0029297
        k(  349) = (  -0.2812500   0.2812500   0.2812500), wk =   0.0009766
        k(  350) = (  -0.3437500   0.3437500   0.2187500), wk =   0.0029297
        k(  351) = (  -0.4062500   0.4062500   0.1562500), wk =   0.0029297
        k(  352) = (  -0.4687500   0.4687500   0.0937500), wk =   0.0029297
        k(  353) = (   0.4687500  -0.4687500   1.0312500), wk =   0.0029297
        k(  354) = (   0.4062500  -0.4062500   0.9687500), wk =   0.0029297
        k(  355) = (   0.3437500  -0.3437500   0.9062500), wk =   0.0029297
        k(  356) = (   0.2812500  -0.2812500   0.8437500), wk =   0.0029297
        k(  357) = (  -0.2812500   0.4062500   0.2812500), wk =   0.0029297
        k(  358) = (  -0.3437500   0.4687500   0.2187500), wk =   0.0058594
        k(  359) = (  -0.4062500   0.5312500   0.1562500), wk =   0.0058594
        k(  360) = (   0.5312500  -0.4062500   1.0937500), wk =   0.0058594
        k(  361) = (   0.4687500  -0.3437500   1.0312500), wk =   0.0058594
        k(  362) = (   0.4062500  -0.2812500   0.9687500), wk =   0.0058594
        k(  363) = (   0.3437500  -0.2187500   0.9062500), wk =   0.0058594
        k(  364) = (  -0.2812500   0.5312500   0.2812500), wk =   0.0029297
        k(  365) = (  -0.3437500   0.5937500   0.2187500), wk =   0.0058594
        k(  366) = (   0.5937500  -0.3437500   1.1562500), wk =   0.0058594
        k(  367) = (   0.5312500  -0.2812500   1.0937500), wk =   0.0058594
        k(  368) = (   0.4687500  -0.2187500   1.0312500), wk =   0.0058594
        k(  369) = (   0.4062500  -0.1562500   0.9687500), wk =   0.0058594
        k(  370) = (  -0.2812500   0.6562500   0.2812500), wk =   0.0029297
        k(  371) = (   0.6562500  -0.2812500   1.2187500), wk =   0.0058594
        k(  372) = (   0.5937500  -0.2187500   1.1562500), wk =   0.0058594
        k(  373) = (   0.5312500  -0.1562500   1.0937500), wk =   0.0058594
        k(  374) = (   0.4687500  -0.0937500   1.0312500), wk =   0.0058594
        k(  375) = (  -0.2812500  -1.2187500   0.2812500), wk =   0.0029297
        k(  376) = (  -0.3437500  -1.1562500   0.2187500), wk =   0.0058594
        k(  377) = (  -0.4062500  -1.0937500   0.1562500), wk =   0.0058594
        k(  378) = (  -0.2812500  -1.0937500   0.2812500), wk =   0.0029297
        k(  379) = (  -0.3437500  -1.0312500   0.2187500), wk =   0.0058594
        k(  380) = (  -0.2812500  -0.9687500   0.2812500), wk =   0.0029297
        k(  381) = (  -0.3437500   0.3437500   0.3437500), wk =   0.0009766
        k(  382) = (  -0.4062500   0.4062500   0.2812500), wk =   0.0029297
        k(  383) = (  -0.4687500   0.4687500   0.2187500), wk =   0.0029297
        k(  384) = (   0.4687500  -0.4687500   1.1562500), wk =   0.0029297
        k(  385) = (   0.4062500  -0.4062500   1.0937500), wk =   0.0029297
        k(  386) = (   0.3437500  -0.3437500   1.0312500), wk =   0.0029297
        k(  387) = (  -0.3437500   0.4687500   0.3437500), wk =   0.0029297
        k(  388) = (  -0.4062500   0.5312500   0.2812500), wk =   0.0058594
        k(  389) = (   0.5312500  -0.4062500   1.2187500), wk =   0.0058594
        k(  390) = (   0.4687500  -0.3437500   1.1562500), wk =   0.0058594
        k(  391) = (   0.4062500  -0.2812500   1.0937500), wk =   0.0058594
        k(  392) = (  -0.3437500   0.5937500   0.3437500), wk =   0.0029297
        k(  393) = (   0.5937500  -0.3437500   1.2812500), wk =   0.0058594
        k(  394) = (   0.5312500  -0.2812500   1.2187500), wk =   0.0058594
        k(  395) = (   0.4687500  -0.2187500   1.1562500), wk =   0.0058594
        k(  396) = (  -0.3437500  -1.2812500   0.3437500), wk =   0.0029297
        k(  397) = (  -0.4062500  -1.2187500   0.2812500), wk =   0.0058594
        k(  398) = (  -0.3437500  -1.1562500   0.3437500), wk =   0.0029297
        k(  399) = (  -0.4062500   0.4062500   0.4062500), wk =   0.0009766
        k(  400) = (  -0.4687500   0.4687500   0.3437500), wk =   0.0029297
        k(  401) = (   0.4687500  -0.4687500   1.2812500), wk =   0.0029297
        k(  402) = (   0.4062500  -0.4062500   1.2187500), wk =   0.0029297
        k(  403) = (  -0.4062500   0.5312500   0.4062500), wk =   0.0029297
        k(  404) = (   0.5312500  -0.4062500   1.3437500), wk =   0.0058594
        k(  405) = (   0.4687500  -0.3437500   1.2812500), wk =   0.0058594
        k(  406) = (  -0.4062500  -1.3437500   0.4062500), wk =   0.0029297
        k(  407) = (  -0.4687500   0.4687500   0.4687500), wk =   0.0009766
        k(  408) = (   0.4687500  -0.4687500   1.4062500), wk =   0.0029297

                       cryst. coord.
        k(    1) = (   0.0312500   0.0312500   0.0312500), wk =   0.0009766
        k(    2) = (   0.0312500   0.0312500   0.0937500), wk =   0.0029297
        k(    3) = (   0.0312500   0.0312500   0.1562500), wk =   0.0029297
        k(    4) = (   0.0312500   0.0312500   0.2187500), wk =   0.0029297
        k(    5) = (   0.0312500   0.0312500   0.2812500), wk =   0.0029297
        k(    6) = (   0.0312500   0.0312500   0.3437500), wk =   0.0029297
        k(    7) = (   0.0312500   0.0312500   0.4062500), wk =   0.0029297
        k(    8) = (   0.0312500   0.0312500   0.4687500), wk =   0.0029297
        k(    9) = (   0.0312500   0.0312500  -0.4687500), wk =   0.0029297
        k(   10) = (   0.0312500   0.0312500  -0.4062500), wk =   0.0029297
        k(   11) = (   0.0312500   0.0312500  -0.3437500), wk =   0.0029297
        k(   12) = (   0.0312500   0.0312500  -0.2812500), wk =   0.0029297
        k(   13) = (   0.0312500   0.0312500  -0.2187500), wk =   0.0029297
        k(   14) = (   0.0312500   0.0312500  -0.1562500), wk =   0.0029297
        k(   15) = (   0.0312500   0.0312500  -0.0937500), wk =   0.0029297
        k(   16) = (   0.0312500   0.0312500  -0.0312500), wk =   0.0029297
        k(   17) = (   0.0312500   0.0937500   0.0937500), wk =   0.0029297
        k(   18) = (   0.0312500   0.0937500   0.1562500), wk =   0.0058594
        k(   19) = (   0.0312500   0.0937500   0.2187500), wk =   0.0058594
        k(   20) = (   0.0312500   0.0937500   0.2812500), wk =   0.0058594
        k(   21) = (   0.0312500   0.0937500   0.3437500), wk =   0.0058594
        k(   22) = (   0.0312500   0.0937500   0.4062500), wk =   0.0058594
        k(   23) = (   0.0312500   0.0937500   0.4687500), wk =   0.0058594
        k(   24) = (   0.0312500   0.0937500  -0.4687500), wk =   0.0058594
        k(   25) = (   0.0312500   0.0937500  -0.4062500), wk =   0.0058594
        k(   26) = (   0.0312500   0.0937500  -0.3437500), wk =   0.0058594
        k(   27) = (   0.0312500   0.0937500  -0.2812500), wk =   0.0058594
        k(   28) = (   0.0312500   0.0937500  -0.2187500), wk =   0.0058594
        k(   29) = (   0.0312500   0.0937500  -0.1562500), wk =   0.0058594
        k(   30) = (   0.0312500   0.0937500  -0.0937500), wk =   0.0058594
        k(   31) = (   0.0312500   0.0937500  -0.0312500), wk =   0.0058594
        k(   32) = (   0.0312500   0.1562500   0.1562500), wk =   0.0029297
        k(   33) = (   0.0312500   0.1562500   0.2187500), wk =   0.0058594
        k(   34) = (   0.0312500   0.1562500   0.2812500), wk =   0.0058594
        k(   35) = (   0.0312500   0.1562500   0.3437500), wk =   0.0058594
        k(   36) = (   0.0312500   0.1562500   0.4062500), wk =   0.0058594
        k(   37) = (   0.0312500   0.1562500   0.4687500), wk =   0.0058594
        k(   38) = (   0.0312500   0.1562500  -0.4687500), wk =   0.0058594
        k(   39) = (   0.0312500   0.1562500  -0.4062500), wk =   0.0058594
        k(   40) = (   0.0312500   0.1562500  -0.3437500), wk =   0.0058594
        k(   41) = (   0.0312500   0.1562500  -0.2812500), wk =   0.0058594
        k(   42) = (   0.0312500   0.1562500  -0.2187500), wk =   0.0058594
        k(   43) = (   0.0312500   0.1562500  -0.1562500), wk =   0.0058594
        k(   44) = (   0.0312500   0.1562500  -0.0937500), wk =   0.0058594
        k(   45) = (   0.0312500   0.1562500  -0.0312500), wk =   0.0058594
        k(   46) = (   0.0312500   0.2187500   0.2187500), wk =   0.0029297
        k(   47) = (   0.0312500   0.2187500   0.2812500), wk =   0.0058594
        k(   48) = (   0.0312500   0.2187500   0.3437500), wk =   0.0058594
        k(   49) = (   0.0312500   0.2187500   0.4062500), wk =   0.0058594
        k(   50) = (   0.0312500   0.2187500   0.4687500), wk =   0.0058594
        k(   51) = (   0.0312500   0.2187500  -0.4687500), wk =   0.0058594
        k(   52) = (   0.0312500   0.2187500  -0.4062500), wk =   0.0058594
        k(   53) = (   0.0312500   0.2187500  -0.3437500), wk =   0.0058594
        k(   54) = (   0.0312500   0.2187500  -0.2812500), wk =   0.0058594
        k(   55) = (   0.0312500   0.2187500  -0.2187500), wk =   0.0058594
        k(   56) = (   0.0312500   0.2187500  -0.1562500), wk =   0.0058594
        k(   57) = (   0.0312500   0.2187500  -0.0937500), wk =   0.0058594
        k(   58) = (   0.0312500   0.2187500  -0.0312500), wk =   0.0058594
        k(   59) = (   0.0312500   0.2812500   0.2812500), wk =   0.0029297
        k(   60) = (   0.0312500   0.2812500   0.3437500), wk =   0.0058594
        k(   61) = (   0.0312500   0.2812500   0.4062500), wk =   0.0058594
        k(   62) = (   0.0312500   0.2812500   0.4687500), wk =   0.0058594
        k(   63) = (   0.0312500   0.2812500  -0.4687500), wk =   0.0058594
        k(   64) = (   0.0312500   0.2812500  -0.4062500), wk =   0.0058594
        k(   65) = (   0.0312500   0.2812500  -0.3437500), wk =   0.0058594
        k(   66) = (   0.0312500   0.2812500  -0.2812500), wk =   0.0058594
        k(   67) = (   0.0312500   0.2812500  -0.2187500), wk =   0.0058594
        k(   68) = (   0.0312500   0.2812500  -0.1562500), wk =   0.0058594
        k(   69) = (   0.0312500   0.2812500  -0.0937500), wk =   0.0058594
        k(   70) = (   0.0312500   0.2812500  -0.0312500), wk =   0.0058594
        k(   71) = (   0.0312500   0.3437500   0.3437500), wk =   0.0029297
        k(   72) = (   0.0312500   0.3437500   0.4062500), wk =   0.0058594
        k(   73) = (   0.0312500   0.3437500   0.4687500), wk =   0.0058594
        k(   74) = (   0.0312500   0.3437500  -0.4687500), wk =   0.0058594
        k(   75) = (   0.0312500   0.3437500  -0.4062500), wk =   0.0058594
        k(   76) = (   0.0312500   0.3437500  -0.3437500), wk =   0.0058594
        k(   77) = (   0.0312500   0.3437500  -0.2812500), wk =   0.0058594
        k(   78) = (   0.0312500   0.3437500  -0.2187500), wk =   0.0058594
        k(   79) = (   0.0312500   0.3437500  -0.1562500), wk =   0.0058594
        k(   80) = (   0.0312500   0.3437500  -0.0937500), wk =   0.0058594
        k(   81) = (   0.0312500   0.3437500  -0.0312500), wk =   0.0058594
        k(   82) = (   0.0312500   0.4062500   0.4062500), wk =   0.0029297
        k(   83) = (   0.0312500   0.4062500   0.4687500), wk =   0.0058594
        k(   84) = (   0.0312500   0.4062500  -0.4687500), wk =   0.0058594
        k(   85) = (   0.0312500   0.4062500  -0.4062500), wk =   0.0058594
        k(   86) = (   0.0312500   0.4062500  -0.3437500), wk =   0.0058594
        k(   87) = (   0.0312500   0.4062500  -0.2812500), wk =   0.0058594
        k(   88) = (   0.0312500   0.4062500  -0.2187500), wk =   0.0058594
        k(   89) = (   0.0312500   0.4062500  -0.1562500), wk =   0.0058594
        k(   90) = (   0.0312500   0.4062500  -0.0937500), wk =   0.0058594
        k(   91) = (   0.0312500   0.4062500  -0.0312500), wk =   0.0058594
        k(   92) = (   0.0312500   0.4687500   0.4687500), wk =   0.0029297
        k(   93) = (   0.0312500   0.4687500  -0.4687500), wk =   0.0058594
        k(   94) = (   0.0312500   0.4687500  -0.4062500), wk =   0.0058594
        k(   95) = (   0.0312500   0.4687500  -0.3437500), wk =   0.0058594
        k(   96) = (   0.0312500   0.4687500  -0.2812500), wk =   0.0058594
        k(   97) = (   0.0312500   0.4687500  -0.2187500), wk =   0.0058594
        k(   98) = (   0.0312500   0.4687500  -0.1562500), wk =   0.0058594
        k(   99) = (   0.0312500   0.4687500  -0.0937500), wk =   0.0058594
        k(  100) = (   0.0312500   0.4687500  -0.0312500), wk =   0.0058594
        k(  101) = (   0.0312500  -0.4687500  -0.4687500), wk =   0.0029297
        k(  102) = (   0.0312500  -0.4687500  -0.4062500), wk =   0.0058594
        k(  103) = (   0.0312500  -0.4687500  -0.3437500), wk =   0.0058594
        k(  104) = (   0.0312500  -0.4687500  -0.2812500), wk =   0.0058594
        k(  105) = (   0.0312500  -0.4687500  -0.2187500), wk =   0.0058594
        k(  106) = (   0.0312500  -0.4687500  -0.1562500), wk =   0.0058594
        k(  107) = (   0.0312500  -0.4687500  -0.0937500), wk =   0.0058594
        k(  108) = (   0.0312500  -0.4062500  -0.4062500), wk =   0.0029297
        k(  109) = (   0.0312500  -0.4062500  -0.3437500), wk =   0.0058594
        k(  110) = (   0.0312500  -0.4062500  -0.2812500), wk =   0.0058594
        k(  111) = (   0.0312500  -0.4062500  -0.2187500), wk =   0.0058594
        k(  112) = (   0.0312500  -0.4062500  -0.1562500), wk =   0.0058594
        k(  113) = (   0.0312500  -0.4062500  -0.0937500), wk =   0.0058594
        k(  114) = (   0.0312500  -0.3437500  -0.3437500), wk =   0.0029297
        k(  115) = (   0.0312500  -0.3437500  -0.2812500), wk =   0.0058594
        k(  116) = (   0.0312500  -0.3437500  -0.2187500), wk =   0.0058594
        k(  117) = (   0.0312500  -0.3437500  -0.1562500), wk =   0.0058594
        k(  118) = (   0.0312500  -0.3437500  -0.0937500), wk =   0.0058594
        k(  119) = (   0.0312500  -0.2812500  -0.2812500), wk =   0.0029297
        k(  120) = (   0.0312500  -0.2812500  -0.2187500), wk =   0.0058594
        k(  121) = (   0.0312500  -0.2812500  -0.1562500), wk =   0.0058594
        k(  122) = (   0.0312500  -0.2812500  -0.0937500), wk =   0.0058594
        k(  123) = (   0.0312500  -0.2187500  -0.2187500), wk =   0.0029297
        k(  124) = (   0.0312500  -0.2187500  -0.1562500), wk =   0.0058594
        k(  125) = (   0.0312500  -0.2187500  -0.0937500), wk =   0.0058594
        k(  126) = (   0.0312500  -0.1562500  -0.1562500), wk =   0.0029297
        k(  127) = (   0.0312500  -0.1562500  -0.0937500), wk =   0.0058594
        k(  128) = (   0.0312500  -0.0937500  -0.0937500), wk =   0.0029297
        k(  129) = (   0.0937500   0.0937500   0.0937500), wk =   0.0009766
        k(  130) = (   0.0937500   0.0937500   0.1562500), wk =   0.0029297
        k(  131) = (   0.0937500   0.0937500   0.2187500), wk =   0.0029297
        k(  132) = (   0.0937500   0.0937500   0.2812500), wk =   0.0029297
        k(  133) = (   0.0937500   0.0937500   0.3437500), wk =   0.0029297
        k(  134) = (   0.0937500   0.0937500   0.4062500), wk =   0.0029297
        k(  135) = (   0.0937500   0.0937500   0.4687500), wk =   0.0029297
        k(  136) = (   0.0937500   0.0937500  -0.4687500), wk =   0.0029297
        k(  137) = (   0.0937500   0.0937500  -0.4062500), wk =   0.0029297
        k(  138) = (   0.0937500   0.0937500  -0.3437500), wk =   0.0029297
        k(  139) = (   0.0937500   0.0937500  -0.2812500), wk =   0.0029297
        k(  140) = (   0.0937500   0.0937500  -0.2187500), wk =   0.0029297
        k(  141) = (   0.0937500   0.0937500  -0.1562500), wk =   0.0029297
        k(  142) = (   0.0937500   0.0937500  -0.0937500), wk =   0.0029297
        k(  143) = (   0.0937500   0.1562500   0.1562500), wk =   0.0029297
        k(  144) = (   0.0937500   0.1562500   0.2187500), wk =   0.0058594
        k(  145) = (   0.0937500   0.1562500   0.2812500), wk =   0.0058594
        k(  146) = (   0.0937500   0.1562500   0.3437500), wk =   0.0058594
        k(  147) = (   0.0937500   0.1562500   0.4062500), wk =   0.0058594
        k(  148) = (   0.0937500   0.1562500   0.4687500), wk =   0.0058594
        k(  149) = (   0.0937500   0.1562500  -0.4687500), wk =   0.0058594
        k(  150) = (   0.0937500   0.1562500  -0.4062500), wk =   0.0058594
        k(  151) = (   0.0937500   0.1562500  -0.3437500), wk =   0.0058594
        k(  152) = (   0.0937500   0.1562500  -0.2812500), wk =   0.0058594
        k(  153) = (   0.0937500   0.1562500  -0.2187500), wk =   0.0058594
        k(  154) = (   0.0937500   0.1562500  -0.1562500), wk =   0.0058594
        k(  155) = (   0.0937500   0.1562500  -0.0937500), wk =   0.0058594
        k(  156) = (   0.0937500   0.2187500   0.2187500), wk =   0.0029297
        k(  157) = (   0.0937500   0.2187500   0.2812500), wk =   0.0058594
        k(  158) = (   0.0937500   0.2187500   0.3437500), wk =   0.0058594
        k(  159) = (   0.0937500   0.2187500   0.4062500), wk =   0.0058594
        k(  160) = (   0.0937500   0.2187500   0.4687500), wk =   0.0058594
        k(  161) = (   0.0937500   0.2187500  -0.4687500), wk =   0.0058594
        k(  162) = (   0.0937500   0.2187500  -0.4062500), wk =   0.0058594
        k(  163) = (   0.0937500   0.2187500  -0.3437500), wk =   0.0058594
        k(  164) = (   0.0937500   0.2187500  -0.2812500), wk =   0.0058594
        k(  165) = (   0.0937500   0.2187500  -0.2187500), wk =   0.0058594
        k(  166) = (   0.0937500   0.2187500  -0.1562500), wk =   0.0058594
        k(  167) = (   0.0937500   0.2187500  -0.0937500), wk =   0.0058594
        k(  168) = (   0.0937500   0.2812500   0.2812500), wk =   0.0029297
        k(  169) = (   0.0937500   0.2812500   0.3437500), wk =   0.0058594
        k(  170) = (   0.0937500   0.2812500   0.4062500), wk =   0.0058594
        k(  171) = (   0.0937500   0.2812500   0.4687500), wk =   0.0058594
        k(  172) = (   0.0937500   0.2812500  -0.4687500), wk =   0.0058594
        k(  173) = (   0.0937500   0.2812500  -0.4062500), wk =   0.0058594
        k(  174) = (   0.0937500   0.2812500  -0.3437500), wk =   0.0058594
        k(  175) = (   0.0937500   0.2812500  -0.2812500), wk =   0.0058594
        k(  176) = (   0.0937500   0.2812500  -0.2187500), wk =   0.0058594
        k(  177) = (   0.0937500   0.2812500  -0.1562500), wk =   0.0058594
        k(  178) = (   0.0937500   0.2812500  -0.0937500), wk =   0.0058594
        k(  179) = (   0.0937500   0.3437500   0.3437500), wk =   0.0029297
        k(  180) = (   0.0937500   0.3437500   0.4062500), wk =   0.0058594
        k(  181) = (   0.0937500   0.3437500   0.4687500), wk =   0.0058594
        k(  182) = (   0.0937500   0.3437500  -0.4687500), wk =   0.0058594
        k(  183) = (   0.0937500   0.3437500  -0.4062500), wk =   0.0058594
        k(  184) = (   0.0937500   0.3437500  -0.3437500), wk =   0.0058594
        k(  185) = (   0.0937500   0.3437500  -0.2812500), wk =   0.0058594
        k(  186) = (   0.0937500   0.3437500  -0.2187500), wk =   0.0058594
        k(  187) = (   0.0937500   0.3437500  -0.1562500), wk =   0.0058594
        k(  188) = (   0.0937500   0.3437500  -0.0937500), wk =   0.0058594
        k(  189) = (   0.0937500   0.4062500   0.4062500), wk =   0.0029297
        k(  190) = (   0.0937500   0.4062500   0.4687500), wk =   0.0058594
        k(  191) = (   0.0937500   0.4062500  -0.4687500), wk =   0.0058594
        k(  192) = (   0.0937500   0.4062500  -0.4062500), wk =   0.0058594
        k(  193) = (   0.0937500   0.4062500  -0.3437500), wk =   0.0058594
        k(  194) = (   0.0937500   0.4062500  -0.2812500), wk =   0.0058594
        k(  195) = (   0.0937500   0.4062500  -0.2187500), wk =   0.0058594
        k(  196) = (   0.0937500   0.4062500  -0.1562500), wk =   0.0058594
        k(  197) = (   0.0937500   0.4062500  -0.0937500), wk =   0.0058594
        k(  198) = (   0.0937500   0.4687500   0.4687500), wk =   0.0029297
        k(  199) = (   0.0937500   0.4687500  -0.4687500), wk =   0.0058594
        k(  200) = (   0.0937500   0.4687500  -0.4062500), wk =   0.0058594
        k(  201) = (   0.0937500   0.4687500  -0.3437500), wk =   0.0058594
        k(  202) = (   0.0937500   0.4687500  -0.2812500), wk =   0.0058594
        k(  203) = (   0.0937500   0.4687500  -0.2187500), wk =   0.0058594
        k(  204) = (   0.0937500   0.4687500  -0.1562500), wk =   0.0058594
        k(  205) = (   0.0937500   0.4687500  -0.0937500), wk =   0.0058594
        k(  206) = (   0.0937500  -0.4687500  -0.4687500), wk =   0.0029297
        k(  207) = (   0.0937500  -0.4687500  -0.4062500), wk =   0.0058594
        k(  208) = (   0.0937500  -0.4687500  -0.3437500), wk =   0.0058594
        k(  209) = (   0.0937500  -0.4687500  -0.2812500), wk =   0.0058594
        k(  210) = (   0.0937500  -0.4687500  -0.2187500), wk =   0.0058594
        k(  211) = (   0.0937500  -0.4687500  -0.1562500), wk =   0.0058594
        k(  212) = (   0.0937500  -0.4062500  -0.4062500), wk =   0.0029297
        k(  213) = (   0.0937500  -0.4062500  -0.3437500), wk =   0.0058594
        k(  214) = (   0.0937500  -0.4062500  -0.2812500), wk =   0.0058594
        k(  215) = (   0.0937500  -0.4062500  -0.2187500), wk =   0.0058594
        k(  216) = (   0.0937500  -0.4062500  -0.1562500), wk =   0.0058594
        k(  217) = (   0.0937500  -0.3437500  -0.3437500), wk =   0.0029297
        k(  218) = (   0.0937500  -0.3437500  -0.2812500), wk =   0.0058594
        k(  219) = (   0.0937500  -0.3437500  -0.2187500), wk =   0.0058594
        k(  220) = (   0.0937500  -0.3437500  -0.1562500), wk =   0.0058594
        k(  221) = (   0.0937500  -0.2812500  -0.2812500), wk =   0.0029297
        k(  222) = (   0.0937500  -0.2812500  -0.2187500), wk =   0.0058594
        k(  223) = (   0.0937500  -0.2812500  -0.1562500), wk =   0.0058594
        k(  224) = (   0.0937500  -0.2187500  -0.2187500), wk =   0.0029297
        k(  225) = (   0.0937500  -0.2187500  -0.1562500), wk =   0.0058594
        k(  226) = (   0.0937500  -0.1562500  -0.1562500), wk =   0.0029297
        k(  227) = (   0.1562500   0.1562500   0.1562500), wk =   0.0009766
        k(  228) = (   0.1562500   0.1562500   0.2187500), wk =   0.0029297
        k(  229) = (   0.1562500   0.1562500   0.2812500), wk =   0.0029297
        k(  230) = (   0.1562500   0.1562500   0.3437500), wk =   0.0029297
        k(  231) = (   0.1562500   0.1562500   0.4062500), wk =   0.0029297
        k(  232) = (   0.1562500   0.1562500   0.4687500), wk =   0.0029297
        k(  233) = (   0.1562500   0.1562500  -0.4687500), wk =   0.0029297
        k(  234) = (   0.1562500   0.1562500  -0.4062500), wk =   0.0029297
        k(  235) = (   0.1562500   0.1562500  -0.3437500), wk =   0.0029297
        k(  236) = (   0.1562500   0.1562500  -0.2812500), wk =   0.0029297
        k(  237) = (   0.1562500   0.1562500  -0.2187500), wk =   0.0029297
        k(  238) = (   0.1562500   0.1562500  -0.1562500), wk =   0.0029297
        k(  239) = (   0.1562500   0.2187500   0.2187500), wk =   0.0029297
        k(  240) = (   0.1562500   0.2187500   0.2812500), wk =   0.0058594
        k(  241) = (   0.1562500   0.2187500   0.3437500), wk =   0.0058594
        k(  242) = (   0.1562500   0.2187500   0.4062500), wk =   0.0058594
        k(  243) = (   0.1562500   0.2187500   0.4687500), wk =   0.0058594
        k(  244) = (   0.1562500   0.2187500  -0.4687500), wk =   0.0058594
        k(  245) = (   0.1562500   0.2187500  -0.4062500), wk =   0.0058594
        k(  246) = (   0.1562500   0.2187500  -0.3437500), wk =   0.0058594
        k(  247) = (   0.1562500   0.2187500  -0.2812500), wk =   0.0058594
        k(  248) = (   0.1562500   0.2187500  -0.2187500), wk =   0.0058594
        k(  249) = (   0.1562500   0.2187500  -0.1562500), wk =   0.0058594
        k(  250) = (   0.1562500   0.2812500   0.2812500), wk =   0.0029297
        k(  251) = (   0.1562500   0.2812500   0.3437500), wk =   0.0058594
        k(  252) = (   0.1562500   0.2812500   0.4062500), wk =   0.0058594
        k(  253) = (   0.1562500   0.2812500   0.4687500), wk =   0.0058594
        k(  254) = (   0.1562500   0.2812500  -0.4687500), wk =   0.0058594
        k(  255) = (   0.1562500   0.2812500  -0.4062500), wk =   0.0058594
        k(  256) = (   0.1562500   0.2812500  -0.3437500), wk =   0.0058594
        k(  257) = (   0.1562500   0.2812500  -0.2812500), wk =   0.0058594
        k(  258) = (   0.1562500   0.2812500  -0.2187500), wk =   0.0058594
        k(  259) = (   0.1562500   0.2812500  -0.1562500), wk =   0.0058594
        k(  260) = (   0.1562500   0.3437500   0.3437500), wk =   0.0029297
        k(  261) = (   0.1562500   0.3437500   0.4062500), wk =   0.0058594
        k(  262) = (   0.1562500   0.3437500   0.4687500), wk =   0.0058594
        k(  263) = (   0.1562500   0.3437500  -0.4687500), wk =   0.0058594
        k(  264) = (   0.1562500   0.3437500  -0.4062500), wk =   0.0058594
        k(  265) = (   0.1562500   0.3437500  -0.3437500), wk =   0.0058594
        k(  266) = (   0.1562500   0.3437500  -0.2812500), wk =   0.0058594
        k(  267) = (   0.1562500   0.3437500  -0.2187500), wk =   0.0058594
        k(  268) = (   0.1562500   0.3437500  -0.1562500), wk =   0.0058594
        k(  269) = (   0.1562500   0.4062500   0.4062500), wk =   0.0029297
        k(  270) = (   0.1562500   0.4062500   0.4687500), wk =   0.0058594
        k(  271) = (   0.1562500   0.4062500  -0.4687500), wk =   0.0058594
        k(  272) = (   0.1562500   0.4062500  -0.4062500), wk =   0.0058594
        k(  273) = (   0.1562500   0.4062500  -0.3437500), wk =   0.0058594
        k(  274) = (   0.1562500   0.4062500  -0.2812500), wk =   0.0058594
        k(  275) = (   0.1562500   0.4062500  -0.2187500), wk =   0.0058594
        k(  276) = (   0.1562500   0.4062500  -0.1562500), wk =   0.0058594
        k(  277) = (   0.1562500   0.4687500   0.4687500), wk =   0.0029297
        k(  278) = (   0.1562500   0.4687500  -0.4687500), wk =   0.0058594
        k(  279) = (   0.1562500   0.4687500  -0.4062500), wk =   0.0058594
        k(  280) = (   0.1562500   0.4687500  -0.3437500), wk =   0.0058594
        k(  281) = (   0.1562500   0.4687500  -0.2812500), wk =   0.0058594
        k(  282) = (   0.1562500   0.4687500  -0.2187500), wk =   0.0058594
        k(  283) = (   0.1562500   0.4687500  -0.1562500), wk =   0.0058594
        k(  284) = (   0.1562500  -0.4687500  -0.4687500), wk =   0.0029297
        k(  285) = (   0.1562500  -0.4687500  -0.4062500), wk =   0.0058594
        k(  286) = (   0.1562500  -0.4687500  -0.3437500), wk =   0.0058594
        k(  287) = (   0.1562500  -0.4687500  -0.2812500), wk =   0.0058594
        k(  288) = (   0.1562500  -0.4687500  -0.2187500), wk =   0.0058594
        k(  289) = (   0.1562500  -0.4062500  -0.4062500), wk =   0.0029297
        k(  290) = (   0.1562500  -0.4062500  -0.3437500), wk =   0.0058594
        k(  291) = (   0.1562500  -0.4062500  -0.2812500), wk =   0.0058594
        k(  292) = (   0.1562500  -0.4062500  -0.2187500), wk =   0.0058594
        k(  293) = (   0.1562500  -0.3437500  -0.3437500), wk =   0.0029297
        k(  294) = (   0.1562500  -0.3437500  -0.2812500), wk =   0.0058594
        k(  295) = (   0.1562500  -0.3437500  -0.2187500), wk =   0.0058594
        k(  296) = (   0.1562500  -0.2812500  -0.2812500), wk =   0.0029297
        k(  297) = (   0.1562500  -0.2812500  -0.2187500), wk =   0.0058594
        k(  298) = (   0.1562500  -0.2187500  -0.2187500), wk =   0.0029297
        k(  299) = (   0.2187500   0.2187500   0.2187500), wk =   0.0009766
        k(  300) = (   0.2187500   0.2187500   0.2812500), wk =   0.0029297
        k(  301) = (   0.2187500   0.2187500   0.3437500), wk =   0.0029297
        k(  302) = (   0.2187500   0.2187500   0.4062500), wk =   0.0029297
        k(  303) = (   0.2187500   0.2187500   0.4687500), wk =   0.0029297
        k(  304) = (   0.2187500   0.2187500  -0.4687500), wk =   0.0029297
        k(  305) = (   0.2187500   0.2187500  -0.4062500), wk =   0.0029297
        k(  306) = (   0.2187500   0.2187500  -0.3437500), wk =   0.0029297
        k(  307) = (   0.2187500   0.2187500  -0.2812500), wk =   0.0029297
        k(  308) = (   0.2187500   0.2187500  -0.2187500), wk =   0.0029297
        k(  309) = (   0.2187500   0.2812500   0.2812500), wk =   0.0029297
        k(  310) = (   0.2187500   0.2812500   0.3437500), wk =   0.0058594
        k(  311) = (   0.2187500   0.2812500   0.4062500), wk =   0.0058594
        k(  312) = (   0.2187500   0.2812500   0.4687500), wk =   0.0058594
        k(  313) = (   0.2187500   0.2812500  -0.4687500), wk =   0.0058594
        k(  314) = (   0.2187500   0.2812500  -0.4062500), wk =   0.0058594
        k(  315) = (   0.2187500   0.2812500  -0.3437500), wk =   0.0058594
        k(  316) = (   0.2187500   0.2812500  -0.2812500), wk =   0.0058594
        k(  317) = (   0.2187500   0.2812500  -0.2187500), wk =   0.0058594
        k(  318) = (   0.2187500   0.3437500   0.3437500), wk =   0.0029297
        k(  319) = (   0.2187500   0.3437500   0.4062500), wk =   0.0058594
        k(  320) = (   0.2187500   0.3437500   0.4687500), wk =   0.0058594
        k(  321) = (   0.2187500   0.3437500  -0.4687500), wk =   0.0058594
        k(  322) = (   0.2187500   0.3437500  -0.4062500), wk =   0.0058594
        k(  323) = (   0.2187500   0.3437500  -0.3437500), wk =   0.0058594
        k(  324) = (   0.2187500   0.3437500  -0.2812500), wk =   0.0058594
        k(  325) = (   0.2187500   0.3437500  -0.2187500), wk =   0.0058594
        k(  326) = (   0.2187500   0.4062500   0.4062500), wk =   0.0029297
        k(  327) = (   0.2187500   0.4062500   0.4687500), wk =   0.0058594
        k(  328) = (   0.2187500   0.4062500  -0.4687500), wk =   0.0058594
        k(  329) = (   0.2187500   0.4062500  -0.4062500), wk =   0.0058594
[...]
    36.5458  36.8469

     occupation numbers 
     1.0000   1.0000   1.0000   1.0000   1.0000   1.0000   0.0000   0.0000
     0.0000   0.0000

          k =-0.3438 0.3438 0.2188 (   219 PWs)   bands (ev):

     7.4520  10.3009  10.5924  10.6476  11.4231  11.7431  23.8910  33.2976
    37.4544  38.1509

     occupation numbers 
     1.0000   1.0000   1.0000   1.0000   1.0000   1.0000   0.0000   0.0000
     0.0000   0.0000

          k =-0.4062 0.4062 0.1562 (   219 PWs)   bands (ev):

     8.0209  10.2092  10.4914  10.7387  11.3748  12.2038  23.2479  30.0587
    37.1695  37.2581

     occupation numbers 
     1.0000   1.0000   1.0000   1.0000   1.0000   1.0000   0.0000   0.0000
     0.0000   0.0000

          k =-0.4688 0.4688 0.0938 (   223 PWs)   bands (ev):

     8.6612  10.1043  10.3231  10.8770  11.3587  12.8832  22.8132  27.0461
    35.3087  36.3977

     occupation numbers 
     1.0000   1.0000   1.0000   1.0000   1.0000   1.0018   0.0000   0.0000
     0.0000   0.0000

          k = 0.4688-0.4688 1.0312 (   222 PWs)   bands (ev):

     9.2183  10.0562  10.1152  11.0123  11.4110  13.8356  22.4212  24.4728
    33.5723  35.4640

     occupation numbers 
     1.0000   1.0000   1.0000   1.0000   1.0000   0.1236   0.0000   0.0000
     0.0000   0.0000

          k = 0.4062-0.4062 0.9688 (   226 PWs)   bands (ev):

     9.4807   9.9072  10.1724  11.0987  11.5532  15.1174  21.0080  23.4418
    32.0590  34.6726

     occupation numbers 
     1.0000   1.0000   1.0000   1.0000   1.0000   0.0000   0.0000   0.0000
     0.0000   0.0000

          k = 0.3438-0.3438 0.9062 (   222 PWs)   bands (ev):

     9.4494   9.7468  10.3917  11.1573  11.7304  16.6512  18.9538  23.6913
    30.8150  34.0728

     occupation numbers 
     1.0000   1.0000   1.0000   1.0000   1.0000   0.0000   0.0000   0.0000
     0.0000   0.0000

          k = 0.2812-0.2812 0.8438 (   224 PWs)   bands (ev):

     9.3038   9.6371  10.5682  11.2169  11.8750  16.4535  19.0939  24.3557
    29.8788  33.6631

     occupation numbers 
     1.0000   1.0000   1.0000   1.0000   1.0000   0.0000   0.0000   0.0000
     0.0000   0.0000

          k =-0.2812 0.4062 0.2812 (   219 PWs)   bands (ev):

     7.7278  10.3799  10.5533  10.6360  11.6446  11.6904  22.9500  34.4242
    35.4550  37.0718

     occupation numbers 
     1.0000   1.0000   1.0000   1.0000   1.0000   1.0000   0.0000   0.0000
     0.0000   0.0000

          k =-0.3438 0.4688 0.2188 (   220 PWs)   bands (ev):

     8.1550  10.3241  10.4695  10.6997  11.6024  12.1514  22.2365  31.6402
    35.0958  36.9604

     occupation numbers 
     1.0000   1.0000   1.0000   1.0000   1.0000   1.0000   0.0000   0.0000
     0.0000   0.0000

          k =-0.4062 0.5312 0.1562 (   221 PWs)   bands (ev):

     8.6690  10.2062  10.3231  10.8325  11.5488  12.8870  21.7448  28.5880
    33.4363  37.7964

     occupation numbers 
     1.0000   1.0000   1.0000   1.0000   1.0000   1.0019   0.0000   0.0000
     0.0000   0.0000

          k = 0.5312-0.4062 1.0938 (   224 PWs)   bands (ev):

     9.1737  10.0708  10.1513  10.9969  11.5350  13.8883  21.4412  25.7772
    31.8581  37.2820

     occupation numbers 
     1.0000   1.0000   1.0000   1.0000   1.0000   0.0711   0.0000   0.0000
     0.0000   0.0000

          k = 0.4688-0.3438 1.0312 (   225 PWs)   bands (ev):

     9.5296   9.8682  10.1163  11.1359  11.5948  15.1875  21.0950  23.4936
    30.4578  36.3966

     occupation numbers 
     1.0000   1.0000   1.0000   1.0000   1.0000   0.0000   0.0000   0.0000
     0.0000   0.0000

          k = 0.4062-0.2812 0.9688 (   223 PWs)   bands (ev):

     9.5621   9.6880  10.2929  11.2281  11.7230  16.7804  19.8005  22.6897
    29.2711  35.6276

     occupation numbers 
     1.0000   1.0000   1.0000   1.0000   1.0000   0.0000   0.0000   0.0000
     0.0000   0.0000

          k = 0.3438-0.2188 0.9062 (   221 PWs)   bands (ev):

     9.3779   9.5925  10.5252  11.3129  11.8524  17.5889  18.9516  23.0526
    28.3348  35.0584

     occupation numbers 
     1.0000   1.0000   1.0000   1.0000   1.0000   0.0000   0.0000   0.0000
     0.0000   0.0000

          k =-0.2812 0.5312 0.2812 (   222 PWs)   bands (ev):

     8.4161  10.2623  10.4685  10.7291  11.8454  12.3394  21.4514  32.6388
    32.9987  34.9282

     occupation numbers 
     1.0000   1.0000   1.0000   1.0000   1.0000   1.0000   0.0000   0.0000
     0.0000   0.0000

          k =-0.3438 0.5938 0.2188 (   224 PWs)   bands (ev):

     8.7650  10.1237  10.4059  10.8431  11.8102  13.0655  20.8916  30.2376
    31.3222  36.1037

     occupation numbers 
     1.0000   1.0000   1.0000   1.0000   1.0000   1.0199   0.0000   0.0000
     0.0000   0.0000

          k = 0.5938-0.3438 1.1562 (   224 PWs)   bands (ev):

     9.1505   9.9716  10.2711  11.0140  11.7434  14.1052  20.5481  27.4279
    29.6740  37.9861

     occupation numbers 
     1.0000   1.0000   1.0000   1.0000   1.0000   0.0035   0.0000   0.0000
     0.0000   0.0000

          k = 0.5312-0.2812 1.0938 (   222 PWs)   bands (ev):

     9.5086   9.8156  10.1300  11.1640  11.7361  15.4225  20.3722  24.8401
    28.2447  38.7850

     occupation numbers 
     1.0000   1.0000   1.0000   1.0000   1.0000   0.0000   0.0000   0.0000
     0.0000   0.0000

          k = 0.4688-0.2188 1.0312 (   222 PWs)   bands (ev):

     9.6083   9.7361  10.1328  11.2495  11.8149  17.0168  20.0897  22.8366
    27.0407  38.2830

     occupation numbers 
     1.0000   1.0000   1.0000   1.0000   1.0000   0.0000   0.0000   0.0000
     0.0000   0.0000

          k = 0.4062-0.1562 0.9688 (   223 PWs)   bands (ev):

     9.4342   9.6656  10.3575  11.3232  11.9147  18.7266  19.0706  22.2314
    26.0790  37.6580

     occupation numbers 
     1.0000   1.0000   1.0000   1.0000   1.0000   0.0000   0.0000   0.0000
     0.0000   0.0000

          k =-0.2812 0.6562 0.2812 (   225 PWs)   bands (ev):

     8.9367   9.9844  10.4726  10.8963  11.9218  13.6359  20.2631  29.3393
    31.2261  34.1993

     occupation numbers 
     1.0000   1.0000   1.0000   1.0000   1.0000   0.5417   0.0000   0.0000
     0.0000   0.0000

          k = 0.6562-0.2812 1.2188 (   224 PWs)   bands (ev):

     9.1647   9.8465  10.4255  11.0388  11.8895  14.6009  19.8604  27.6437
    29.2441  35.5124

     occupation numbers 
     1.0000   1.0000   1.0000   1.0000   1.0000   0.0000   0.0000   0.0000
     0.0000   0.0000

          k = 0.5938-0.2188 1.1562 (   222 PWs)   bands (ev):

     9.4201   9.7336  10.2883  11.1933  11.8531  15.8708  19.6740  26.1464
    26.6759  37.8499

     occupation numbers 
     1.0000   1.0000   1.0000   1.0000   1.0000   0.0000   0.0000   0.0000
     0.0000   0.0000

          k = 0.5312-0.1562 1.0938 (   218 PWs)   bands (ev):

     9.5321   9.7886  10.1189  11.2648  11.9007  17.4046  19.6476  24.2141
    25.0010  40.1238

     occupation numbers 
     1.0000   1.0000   1.0000   1.0000   1.0000   0.0000   0.0000   0.0000
     0.0000   0.0000

          k = 0.4688-0.0938 1.0312 (   219 PWs)   bands (ev):

     9.4405   9.8630  10.1265  11.2929  11.9885  19.1495  19.5208  22.4466
    24.0259  40.5336

     occupation numbers 
     1.0000   1.0000   1.0000   1.0000   1.0000   0.0000   0.0000   0.0000
     0.0000   0.0000

          k =-0.2812-1.2188 0.2812 (   223 PWs)   bands (ev):

     9.2311   9.7283  10.5295  11.1090  11.9097  15.4329  19.3976  25.9071
    30.2198  33.7887

     occupation numbers 
     1.0000   1.0000   1.0000   1.0000   1.0000   0.0000   0.0000   0.0000
     0.0000   0.0000

          k =-0.3438-1.1562 0.2188 (   223 PWs)   bands (ev):

     9.3503   9.6427  10.4918  11.2363  11.8757  16.5661  19.1659  24.4207
    28.5377  35.1565

     occupation numbers 
     1.0000   1.0000   1.0000   1.0000   1.0000   0.0000   0.0000   0.0000
     0.0000   0.0000

          k =-0.4062-1.0938 0.1562 (   222 PWs)   bands (ev):

     9.4528   9.6614  10.3402  11.3026  11.9041  17.9228  19.1641  23.2249
    26.1732  37.6941

     occupation numbers 
     1.0000   1.0000   1.0000   1.0000   1.0000   0.0000   0.0000   0.0000
     0.0000   0.0000

          k =-0.2812-1.0938 0.2812 (   223 PWs)   bands (ev):

     9.3387   9.5798  10.6018  11.3112  11.8314  17.4745  18.8758  22.9956
    29.6498  33.5824

     occupation numbers 
     1.0000   1.0000   1.0000   1.0000   1.0000   0.0000   0.0000   0.0000
     0.0000   0.0000

          k =-0.3438-1.0312 0.2188 (   222 PWs)   bands (ev):

     9.3820   9.5739  10.5450  11.3576  11.8345  18.4164  18.7981  22.0983
    28.2330  35.0099

     occupation numbers 
     1.0000   1.0000   1.0000   1.0000   1.0000   0.0000   0.0000   0.0000
     0.0000   0.0000

          k =-0.2812-0.9688 0.2812 (   223 PWs)   bands (ev):

     9.3493   9.5549  10.6213  11.3712  11.7972  18.3073  18.7051  22.0546
    29.5347  33.5428

     occupation numbers 
     1.0000   1.0000   1.0000   1.0000   1.0000   0.0000   0.0000   0.0000
     0.0000   0.0000

          k =-0.3438 0.3438 0.3438 (   223 PWs)   bands (ev):

     7.8751  10.5631  10.5631  10.6760  11.6523  11.6523  21.9528  36.2319
    36.2319  36.3551

     occupation numbers 
     1.0000   1.0000   1.0000   1.0000   1.0000   1.0000   0.0000   0.0000
     0.0000   0.0000

          k =-0.4062 0.4062 0.2812 (   223 PWs)   bands (ev):

     8.1705  10.5120  10.5768  10.7246  11.6166  12.0279  21.1833  33.2119
    36.6768  37.1028

     occupation numbers 
     1.0000   1.0000   1.0000   1.0000   1.0000   1.0000   0.0000   0.0000
     0.0000   0.0000

          k =-0.4688 0.4688 0.2188 (   219 PWs)   bands (ev):

     8.5726  10.3853  10.5697  10.6718  11.5918  12.7835  20.6334  30.1060
    35.6382  36.2704

     occupation numbers 
     1.0000   1.0000   1.0000   1.0000   1.0000   1.0003   0.0000   0.0000
     0.0000   0.0000

          k = 0.4688-0.4688 1.1562 (   219 PWs)   bands (ev):

     9.0135  10.1845  10.3861  10.8321  11.5871  13.8175  20.2851  27.1948
    33.8271  35.4861

     occupation numbers 
     1.0000   1.0000   1.0000   1.0000   1.0000   0.1470   0.0000   0.0000
     0.0000   0.0000

          k = 0.4062-0.4062 1.0938 (   224 PWs)   bands (ev):

     9.3860   9.9400  10.2723  11.0292  11.6134  15.1198  20.0750  24.5964
    32.1556  34.6969

     occupation numbers 
     1.0000   1.0000   1.0000   1.0000   1.0000   0.0000   0.0000   0.0000
     0.0000   0.0000

          k = 0.3438-0.3438 1.0312 (   220 PWs)   bands (ev):

     9.5045   9.7121  10.3573  11.2218  11.6835  16.6972  19.7032  22.6417
    30.7088  34.0390

     occupation numbers 
     1.0000   1.0000   1.0000   1.0000   1.0000   0.0000   0.0000   0.0000
     0.0000   0.0000

          k =-0.3438 0.4688 0.3438 (   224 PWs)   bands (ev):

     8.3198  10.4726  10.5713  10.8928  11.8223  12.0652  20.3623  34.4062
    35.1140  35.9561

     occupation numbers 
     1.0000   1.0000   1.0000   1.0000   1.0000   1.0000   0.0000   0.0000
     0.0000   0.0000

          k =-0.4062 0.5312 0.2812 (   225 PWs)   bands (ev):

     8.5869  10.3727  10.6263  10.7788  11.7803  12.8127  19.7632  31.7616
    33.8954  36.5904

     occupation numbers 
     1.0000   1.0000   1.0000   1.0000   1.0000   1.0005   0.0000   0.0000
     0.0000   0.0000

          k = 0.5312-0.4062 1.2188 (   223 PWs)   bands (ev):

     8.9326  10.1945  10.5540  10.7834  11.7338  13.8797  19.3699  28.8341
    32.2416  37.0201

     occupation numbers 
     1.0000   1.0000   1.0000   1.0000   1.0000   0.0783   0.0000   0.0000
     0.0000   0.0000

          k = 0.4688-0.3438 1.1562 (   226 PWs)   bands (ev):

     9.2896   9.9587  10.3753  10.9672  11.7241  15.1921  19.1540  26.1154
    30.7132  36.4336

     occupation numbers 
     1.0000   1.0000   1.0000   1.0000   1.0000   0.0000   0.0000   0.0000
     0.0000   0.0000

          k = 0.4062-0.2812 1.0938 (   224 PWs)   bands (ev):

     9.5044   9.7212  10.3319  11.1722  11.7581  16.7456  19.0309  23.7511
    29.3647  35.6646

     occupation numbers 
     1.0000   1.0000   1.0000   1.0000   1.0000   0.0000   0.0000   0.0000
     0.0000   0.0000

          k =-0.3438 0.5938 0.3438 (   227 PWs)   bands (ev):

     8.7187  10.2864  10.6711  10.7607  11.9064  13.2828  19.1252  31.9073
    32.8980  34.8804

     occupation numbers 
     1.0000   1.0000   1.0000   1.0000   1.0000   1.0819   0.0000   0.0000
     0.0000   0.0000

          k = 0.5938-0.3438 1.2812 (   224 PWs)   bands (ev):

     8.9508  10.1381  10.6168  10.7913  11.8730  14.2210  18.7056  30.1193
    30.7174  36.1780

     occupation numbers 
     1.0000   1.0000   1.0000   1.0000   1.0000   0.0004   0.0000   0.0000
     0.0000   0.0000

          k = 0.5312-0.2812 1.2188 (   224 PWs)   bands (ev):

     9.2499   9.9361  10.4331  10.9559  11.8296  15.4486  18.4941  27.8629
    28.6848  37.8443

     occupation numbers 
     1.0000   1.0000   1.0000   1.0000   1.0000   0.0000   0.0000   0.0000
     0.0000   0.0000

          k = 0.4688-0.2188 1.1562 (   223 PWs)   bands (ev):

     9.5354   9.7160  10.2747  11.1386  11.8379  16.8535  18.5131  25.3649
    27.3075  38.2123

     occupation numbers 
     1.0000   1.0000   1.0000   1.0000   1.0000   0.0000   0.0000   0.0000
     0.0000   0.0000

          k =-0.3438-1.2812 0.3438 (   221 PWs)   bands (ev):

     9.0656  10.0341  10.5963  10.8461  11.8926  14.9270  18.2920  28.3532
    31.7623  34.4050

     occupation numbers 
     1.0000   1.0000   1.0000   1.0000   1.0000   0.0000   0.0000   0.0000
     0.0000   0.0000

          k =-0.4062-1.2188 0.2812 (   224 PWs)   bands (ev):

     9.2671   9.8888  10.4684  10.9817  11.8482  15.9001  18.1622  26.7454
    29.8313  35.8503

     occupation numbers 
     1.0000   1.0000   1.0000   1.0000   1.0000   0.0000   0.0000   0.0000
     0.0000   0.0000

          k =-0.3438-1.1562 0.3438 (   223 PWs)   bands (ev):

     9.3491   9.8160  10.4497  11.0594  11.7939  16.4018  18.2962  25.1059
    31.0268  34.1425

     occupation numbers 
     1.0000   1.0000   1.0000   1.0000   1.0000   0.0000   0.0000   0.0000
     0.0000   0.0000

          k =-0.4062 0.4062 0.4062 (   226 PWs)   bands (ev):

     8.3460  10.5011  10.5011  11.5532  11.7993  11.7993  19.5206  35.9692
    36.0668  36.0668

     occupation numbers 
     1.0000   1.0000   1.0000   1.0000   1.0000   1.0000   0.0000   0.0000
     0.0000   0.0000

          k =-0.4688 0.4688 0.3438 (   224 PWs)   bands (ev):

     8.5035  10.4478  10.5239  11.2994  11.7810  12.5880  18.9099  33.3830
    36.0633  36.0668

     occupation numbers 
     1.0000   1.0000   1.0000   1.0000   1.0000   1.0000   0.0000   0.0000
     0.0000   0.0000

          k = 0.4688-0.4688 1.2812 (   225 PWs)   bands (ev):

     8.7703  10.3069  10.6355  10.9175  11.7717  13.6913  18.5081  30.4309
    34.4041  35.5495

     occupation numbers 
     1.0000   1.0000   1.0000   1.0000   1.0000   0.3951   0.0000   0.0000
     0.0000   0.0000

          k = 0.4062-0.4062 1.2188 (   219 PWs)   bands (ev):

     9.0933  10.0852  10.5981  10.8222  11.7750  14.9807  18.2978  27.6336
    32.6358  34.8263

     occupation numbers 
     1.0000   1.0000   1.0000   1.0000   1.0000   0.0000   0.0000   0.0000
     0.0000   0.0000

          k =-0.4062 0.5312 0.4062 (   222 PWs)   bands (ev):

     8.5501  10.4233  10.5223  11.3681  11.8928  12.8304  18.3167  34.4806
    34.6732  35.5640

     occupation numbers 
     1.0000   1.0000   1.0000   1.0000   1.0000   1.0007   0.0000   0.0000
     0.0000   0.0000

          k = 0.5312-0.4062 1.3438 (   227 PWs)   bands (ev):

     8.7227  10.3252  10.5976  11.0753  11.8654  13.7191  17.9637  32.1351
    32.9633  36.4026

     occupation numbers 
     1.0000   1.0000   1.0000   1.0000   1.0000   0.3284   0.0000   0.0000
     0.0000   0.0000

          k = 0.4688-0.3438 1.2812 (   223 PWs)   bands (ev):

     8.9896  10.1400  10.7211  10.7577  11.8438  14.8283  17.8649  29.3613
    31.3138  36.4775

     occupation numbers 
     1.0000   1.0000   1.0000   1.0000   1.0000   0.0000   0.0000   0.0000
     0.0000   0.0000

          k =-0.4062-1.3438 0.4062 (   225 PWs)   bands (ev):

     8.7997  10.2726  10.6363  10.9773  11.8824  14.1496  17.7329  31.0356
    33.4869  35.0900

     occupation numbers 
     1.0000   1.0000   1.0000   1.0000   1.0000   0.0016   0.0000   0.0000
     0.0000   0.0000

          k =-0.4688 0.4688 0.4688 (   228 PWs)   bands (ev):

     8.5030  10.4650  10.4650  11.8832  11.8832  12.5505  17.8217  35.7597
    36.0067  36.0067

     occupation numbers 
     1.0000   1.0000   1.0000   1.0000   1.0000   1.0000   0.0000   0.0000
     0.0000   0.0000

          k = 0.4688-0.4688 1.4062 (   223 PWs)   bands (ev):

     8.5918  10.4149  10.5045  11.5009  11.8794  13.2456  17.6175  33.8172
    35.2307  35.6802

     occupation numbers 
     1.0000   1.0000   1.0000   1.0000   1.0000   1.0743   0.0000   0.0000
     0.0000   0.0000

     the Fermi energy is    13.6890 ev

!    total energy              =     -87.84347290 Ry
     Harris-Foulkes estimate   =     -87.84347291 Ry
     estimated scf accuracy    <       0.00000001 Ry

     The total energy is the sum of the following terms:

     one-electron contribution =     -12.12330608 Ry
     hartree contribution      =      19.52511869 Ry
     xc contribution           =     -14.03319548 Ry
     ewald contribution        =     -81.21214902 Ry
     smearing contrib. (-TS)   =       0.00005899 Ry

     convergence has been achieved in   6 iterations

     Writing output data file Cu_exc2.save

     init_run     :      9.02s CPU      9.68s WALL (       1 calls)
     electrons    :    119.51s CPU    124.18s WALL (       1 calls)

     Called by init_run:
     wfcinit      :      7.73s CPU      8.33s WALL (       1 calls)
     potinit      :      0.01s CPU      0.01s WALL (       1 calls)

     Called by electrons:
     c_bands      :    101.82s CPU    105.60s WALL (       6 calls)
     sum_band     :     17.40s CPU     18.27s WALL (       6 calls)
     v_of_rho     :      0.03s CPU      0.03s WALL (       7 calls)
     v_h          :      0.01s CPU      0.01s WALL (       7 calls)
     v_xc         :      0.02s CPU      0.03s WALL (       7 calls)
     newd         :      0.22s CPU      0.25s WALL (       7 calls)
     mix_rho      :      0.01s CPU      0.01s WALL (       6 calls)

     Called by c_bands:
     init_us_2    :      2.52s CPU      2.53s WALL (    5304 calls)
     cegterg      :     98.96s CPU    102.74s WALL (    2448 calls)

     Called by sum_band:
     sum_band:bec :      0.05s CPU      0.08s WALL (    2448 calls)
     addusdens    :      0.16s CPU      0.17s WALL (       6 calls)

     Called by *egterg:
     h_psi        :     84.57s CPU     87.97s WALL (    7670 calls)
     s_psi        :      2.31s CPU      2.40s WALL (    7670 calls)
     g_psi        :      0.27s CPU      0.24s WALL (    4814 calls)
     cdiaghg      :      7.37s CPU      7.83s WALL (    7262 calls)
     cegterg:over :      4.69s CPU      4.79s WALL (    4814 calls)
     cegterg:upda :      2.51s CPU      2.79s WALL (    4814 calls)
     cegterg:last :      1.63s CPU      1.63s WALL (    2449 calls)

     Called by h_psi:
     h_psi:vloc   :     79.37s CPU     82.52s WALL (    7670 calls)
     h_psi:vnl    :      4.97s CPU      5.20s WALL (    7670 calls)
     add_vuspsi   :      2.45s CPU      2.45s WALL (    7670 calls)

     General routines
     calbec       :      3.35s CPU      3.63s WALL (   10118 calls)
     fft          :      0.06s CPU      0.06s WALL (      40 calls)
     fftw         :     87.58s CPU     91.09s WALL (  151510 calls)
     davcio       :      0.01s CPU      0.10s WALL (     408 calls)

     Parallel routines
     fft_scatter  :      3.17s CPU      3.18s WALL (  151550 calls)

     PWSCF        :  2m13.77s CPU     2m20.18s WALL


   This run was terminated on:  21:19:55  18Feb2020            

=------------------------------------------------------------------------------=
   JOB DONE.
=------------------------------------------------------------------------------=
