
     Program PWSCF v.5.1 starts on 18Feb2020 at 21:16:35 

     This program is part of the open-source Quantum ESPRESSO suite
     for quantum simulation of materials; please cite
         "P. Giannozzi et al., J. Phys.:Condens. Matter 21 395502 (2009);
          URL http://www.quantum-espresso.org", 
     in publications or presentations arising from this work. More details at
     http://www.quantum-espresso.org/quote

     Parallel version (MPI), running on     1 processors
     Waiting for input...
     Reading input from standard input

     Current dimensions of program PWSCF are:
     Max number of different atomic species (ntypx) = 10
     Max number of k-points (npk) =  40000
     Max angular momentum in pseudopotentials (lmaxx) =  3
               file Cu.pz-d-rrkjus.UPF: wavefunction(s)  3D renormalized

     Subspace diagonalization in iterative solution of the eigenvalue problem:
     a serial algorithm will be used


     G-vector sticks info
     --------------------
     sticks:   dense  smooth     PW     G-vecs:    dense   smooth      PW
     Sum         199     199     73                 1807     1807     411



     bravais-lattice index     =            2
     lattice parameter (alat)  =       6.8311  a.u.
     unit-cell volume          =      79.6915 (a.u.)^3
     number of atoms/cell      =            1
     number of atomic types    =            1
     number of electrons       =        11.00
     number of Kohn-Sham states=           10
     kinetic-energy cutoff     =      30.0000  Ry
     charge density cutoff     =     120.0000  Ry
     convergence threshold     =      1.0E-06
     mixing beta               =       0.7000
     number of iterations used =            8  plain     mixing
     Exchange-correlation      =  SLA  PZ   NOGX NOGC ( 1  1  0  0 0)

     celldm(1)=   6.831100  celldm(2)=   0.000000  celldm(3)=   0.000000
     celldm(4)=   0.000000  celldm(5)=   0.000000  celldm(6)=   0.000000

     crystal axes: (cart. coord. in units of alat)
               a(1) = (  -0.500000   0.000000   0.500000 )  
               a(2) = (   0.000000   0.500000   0.500000 )  
               a(3) = (  -0.500000   0.500000   0.000000 )  

     reciprocal axes: (cart. coord. in units 2 pi/alat)
               b(1) = ( -1.000000 -1.000000  1.000000 )  
               b(2) = (  1.000000  1.000000  1.000000 )  
               b(3) = ( -1.000000  1.000000 -1.000000 )  


     PseudoPot. # 1 for Cu read from file:
     ../pseudo/Cu.pz-d-rrkjus.UPF
     MD5 check sum: fd38ae683e239c95a66f426e1f8e5fc7
     Pseudo is Ultrasoft, Zval = 11.0
     Generated by new atomic code, or converted to UPF format
     Using radial grid of  899 points,  3 beta functions with: 
                l(1) =   2
                l(2) =   2
                l(3) =   1
     Q(r) pseudized with 0 coefficients 


     atomic species   valence    mass     pseudopotential
        Cu            11.00    63.54000     Cu( 1.00)

     48 Sym. Ops., with inversion, found


                                    s                        frac. trans.

      isym =  1     identity                                     

 cryst.   s( 1) = (     1          0          0      )
                  (     0          1          0      )
                  (     0          0          1      )

 cart.    s( 1) = (  1.0000000  0.0000000  0.0000000 )
                  (  0.0000000  1.0000000  0.0000000 )
                  (  0.0000000  0.0000000  1.0000000 )


      isym =  2     180 deg rotation - cart. axis [0,0,1]        

 cryst.   s( 2) = (     0          1         -1      )
                  (     1          0         -1      )
                  (     0          0         -1      )

 cart.    s( 2) = ( -1.0000000  0.0000000  0.0000000 )
                  (  0.0000000 -1.0000000  0.0000000 )
                  (  0.0000000  0.0000000  1.0000000 )


      isym =  3     180 deg rotation - cart. axis [0,1,0]        

 cryst.   s( 3) = (    -1          0          0      )
                  (    -1          0          1      )
                  (    -1          1          0      )

 cart.    s( 3) = ( -1.0000000  0.0000000  0.0000000 )
                  (  0.0000000  1.0000000  0.0000000 )
                  (  0.0000000  0.0000000 -1.0000000 )


      isym =  4     180 deg rotation - cart. axis [1,0,0]        

 cryst.   s( 4) = (     0         -1          1      )
                  (     0         -1          0      )
                  (     1         -1          0      )

 cart.    s( 4) = (  1.0000000  0.0000000  0.0000000 )
                  (  0.0000000 -1.0000000  0.0000000 )
                  (  0.0000000  0.0000000 -1.0000000 )


      isym =  5     180 deg rotation - cart. axis [1,1,0]        

 cryst.   s( 5) = (     0         -1          0      )
                  (    -1          0          0      )
                  (     0          0         -1      )

 cart.    s( 5) = (  0.0000000  1.0000000  0.0000000 )
                  (  1.0000000  0.0000000  0.0000000 )
                  (  0.0000000  0.0000000 -1.0000000 )


      isym =  6     180 deg rotation - cart. axis [1,-1,0]       

 cryst.   s( 6) = (    -1          0          1      )
                  (     0         -1          1      )
                  (     0          0          1      )

 cart.    s( 6) = (  0.0000000 -1.0000000  0.0000000 )
                  ( -1.0000000  0.0000000  0.0000000 )
                  (  0.0000000  0.0000000 -1.0000000 )


      isym =  7      90 deg rotation - cart. axis [0,0,-1]       

 cryst.   s( 7) = (     0          1          0      )
                  (     0          1         -1      )
                  (    -1          1          0      )

 cart.    s( 7) = (  0.0000000  1.0000000  0.0000000 )
                  ( -1.0000000  0.0000000  0.0000000 )
                  (  0.0000000  0.0000000  1.0000000 )


      isym =  8      90 deg rotation - cart. axis [0,0,1]        

 cryst.   s( 8) = (     1          0         -1      )
                  (     1          0          0      )
                  (     1         -1          0      )

 cart.    s( 8) = (  0.0000000 -1.0000000  0.0000000 )
                  (  1.0000000  0.0000000  0.0000000 )
                  (  0.0000000  0.0000000  1.0000000 )


      isym =  9     180 deg rotation - cart. axis [1,0,1]        

 cryst.   s( 9) = (    -1          0          0      )
                  (     0          0         -1      )
                  (     0         -1          0      )

 cart.    s( 9) = (  0.0000000  0.0000000  1.0000000 )
                  (  0.0000000 -1.0000000  0.0000000 )
                  (  1.0000000  0.0000000  0.0000000 )


      isym = 10     180 deg rotation - cart. axis [-1,0,1]       

 cryst.   s(10) = (     1          0          0      )
                  (     1         -1          0      )
                  (     1          0         -1      )

 cart.    s(10) = (  0.0000000  0.0000000 -1.0000000 )
                  (  0.0000000 -1.0000000  0.0000000 )
                  ( -1.0000000  0.0000000  0.0000000 )


      isym = 11      90 deg rotation - cart. axis [0,1,0]        

 cryst.   s(11) = (     0          1         -1      )
                  (    -1          1          0      )
                  (     0          1          0      )

 cart.    s(11) = (  0.0000000  0.0000000  1.0000000 )
                  (  0.0000000  1.0000000  0.0000000 )
                  ( -1.0000000  0.0000000  0.0000000 )


      isym = 12      90 deg rotation - cart. axis [0,-1,0]       

 cryst.   s(12) = (     0         -1          1      )
                  (     0          0          1      )
                  (    -1          0          1      )

 cart.    s(12) = (  0.0000000  0.0000000 -1.0000000 )
                  (  0.0000000  1.0000000  0.0000000 )
                  (  1.0000000  0.0000000  0.0000000 )


      isym = 13     180 deg rotation - cart. axis [0,1,1]        

 cryst.   s(13) = (    -1          1          0      )
                  (     0          1          0      )
                  (     0          1         -1      )

 cart.    s(13) = ( -1.0000000  0.0000000  0.0000000 )
                  (  0.0000000  0.0000000  1.0000000 )
                  (  0.0000000  1.0000000  0.0000000 )


      isym = 14     180 deg rotation - cart. axis [0,1,-1]       

 cryst.   s(14) = (     0          0         -1      )
                  (     0         -1          0      )
                  (    -1          0          0      )

 cart.    s(14) = ( -1.0000000  0.0000000  0.0000000 )
                  (  0.0000000  0.0000000 -1.0000000 )
                  (  0.0000000 -1.0000000  0.0000000 )


      isym = 15      90 deg rotation - cart. axis [-1,0,0]       

 cryst.   s(15) = (     0          0          1      )
                  (    -1          0          1      )
                  (     0         -1          1      )

 cart.    s(15) = (  1.0000000  0.0000000  0.0000000 )
                  (  0.0000000  0.0000000  1.0000000 )
                  (  0.0000000 -1.0000000  0.0000000 )


      isym = 16      90 deg rotation - cart. axis [1,0,0]        

 cryst.   s(16) = (     1         -1          0      )
                  (     1          0         -1      )
                  (     1          0          0      )

 cart.    s(16) = (  1.0000000  0.0000000  0.0000000 )
                  (  0.0000000  0.0000000 -1.0000000 )
                  (  0.0000000  1.0000000  0.0000000 )


      isym = 17     120 deg rotation - cart. axis [-1,-1,-1]     

 cryst.   s(17) = (    -1          0          1      )
                  (    -1          1          0      )
                  (    -1          0          0      )

 cart.    s(17) = (  0.0000000  1.0000000  0.0000000 )
                  (  0.0000000  0.0000000  1.0000000 )
                  (  1.0000000  0.0000000  0.0000000 )


      isym = 18     120 deg rotation - cart. axis [-1,1,1]       

 cryst.   s(18) = (     0          1          0      )
                  (     0          0          1      )
                  (     1          0          0      )

 cart.    s(18) = (  0.0000000 -1.0000000  0.0000000 )
                  (  0.0000000  0.0000000  1.0000000 )
                  ( -1.0000000  0.0000000  0.0000000 )


      isym = 19     120 deg rotation - cart. axis [1,1,-1]       

 cryst.   s(19) = (     1          0         -1      )
                  (     0          0         -1      )
                  (     0          1         -1      )

 cart.    s(19) = (  0.0000000  1.0000000  0.0000000 )
                  (  0.0000000  0.0000000 -1.0000000 )
                  ( -1.0000000  0.0000000  0.0000000 )


      isym = 20     120 deg rotation - cart. axis [1,-1,1]       

 cryst.   s(20) = (     0         -1          0      )
                  (     1         -1          0      )
                  (     0         -1          1      )

 cart.    s(20) = (  0.0000000 -1.0000000  0.0000000 )
                  (  0.0000000  0.0000000 -1.0000000 )
                  (  1.0000000  0.0000000  0.0000000 )


      isym = 21     120 deg rotation - cart. axis [1,1,1]        

 cryst.   s(21) = (     0          0         -1      )
                  (     0          1         -1      )
                  (     1          0         -1      )

 cart.    s(21) = (  0.0000000  0.0000000  1.0000000 )
                  (  1.0000000  0.0000000  0.0000000 )
                  (  0.0000000  1.0000000  0.0000000 )


      isym = 22     120 deg rotation - cart. axis [-1,1,-1]      

 cryst.   s(22) = (    -1          1          0      )
                  (    -1          0          0      )
                  (    -1          0          1      )

 cart.    s(22) = (  0.0000000  0.0000000  1.0000000 )
                  ( -1.0000000  0.0000000  0.0000000 )
                  (  0.0000000 -1.0000000  0.0000000 )


      isym = 23     120 deg rotation - cart. axis [1,-1,-1]      

 cryst.   s(23) = (     0          0          1      )
                  (     1          0          0      )
                  (     0          1          0      )

 cart.    s(23) = (  0.0000000  0.0000000 -1.0000000 )
                  ( -1.0000000  0.0000000  0.0000000 )
                  (  0.0000000  1.0000000  0.0000000 )


      isym = 24     120 deg rotation - cart. axis [-1,-1,1]      

 cryst.   s(24) = (     1         -1          0      )
                  (     0         -1          1      )
                  (     0         -1          0      )

 cart.    s(24) = (  0.0000000  0.0000000 -1.0000000 )
                  (  1.0000000  0.0000000  0.0000000 )
                  (  0.0000000 -1.0000000  0.0000000 )


      isym = 25     inversion                                    

 cryst.   s(25) = (    -1          0          0      )
                  (     0         -1          0      )
                  (     0          0         -1      )

 cart.    s(25) = ( -1.0000000  0.0000000  0.0000000 )
                  (  0.0000000 -1.0000000  0.0000000 )
                  (  0.0000000  0.0000000 -1.0000000 )


      isym = 26     inv. 180 deg rotation - cart. axis [0,0,1]   

 cryst.   s(26) = (     0         -1          1      )
                  (    -1          0          1      )
                  (     0          0          1      )

 cart.    s(26) = (  1.0000000  0.0000000  0.0000000 )
                  (  0.0000000  1.0000000  0.0000000 )
                  (  0.0000000  0.0000000 -1.0000000 )


      isym = 27     inv. 180 deg rotation - cart. axis [0,1,0]   

 cryst.   s(27) = (     1          0          0      )
                  (     1          0         -1      )
                  (     1         -1          0      )

 cart.    s(27) = (  1.0000000  0.0000000  0.0000000 )
                  (  0.0000000 -1.0000000  0.0000000 )
                  (  0.0000000  0.0000000  1.0000000 )


      isym = 28     inv. 180 deg rotation - cart. axis [1,0,0]   

 cryst.   s(28) = (     0          1         -1      )
                  (     0          1          0      )
                  (    -1          1          0      )

 cart.    s(28) = ( -1.0000000  0.0000000  0.0000000 )
                  (  0.0000000  1.0000000  0.0000000 )
                  (  0.0000000  0.0000000  1.0000000 )


      isym = 29     inv. 180 deg rotation - cart. axis [1,1,0]   

 cryst.   s(29) = (     0          1          0      )
                  (     1          0          0      )
                  (     0          0          1      )

 cart.    s(29) = (  0.0000000 -1.0000000  0.0000000 )
                  ( -1.0000000  0.0000000  0.0000000 )
                  (  0.0000000  0.0000000  1.0000000 )


      isym = 30     inv. 180 deg rotation - cart. axis [1,-1,0]  

 cryst.   s(30) = (     1          0         -1      )
                  (     0          1         -1      )
                  (     0          0         -1      )

 cart.    s(30) = (  0.0000000  1.0000000  0.0000000 )
                  (  1.0000000  0.0000000  0.0000000 )
                  (  0.0000000  0.0000000  1.0000000 )


      isym = 31     inv.  90 deg rotation - cart. axis [0,0,-1]  

 cryst.   s(31) = (     0         -1          0      )
                  (     0         -1          1      )
                  (     1         -1          0      )

 cart.    s(31) = (  0.0000000 -1.0000000  0.0000000 )
                  (  1.0000000  0.0000000  0.0000000 )
                  (  0.0000000  0.0000000 -1.0000000 )


      isym = 32     inv.  90 deg rotation - cart. axis [0,0,1]   

 cryst.   s(32) = (    -1          0          1      )
                  (    -1          0          0      )
                  (    -1          1          0      )

 cart.    s(32) = (  0.0000000  1.0000000  0.0000000 )
                  ( -1.0000000  0.0000000  0.0000000 )
                  (  0.0000000  0.0000000 -1.0000000 )


      isym = 33     inv. 180 deg rotation - cart. axis [1,0,1]   

 cryst.   s(33) = (     1          0          0      )
                  (     0          0          1      )
                  (     0          1          0      )

 cart.    s(33) = (  0.0000000  0.0000000 -1.0000000 )
                  (  0.0000000  1.0000000  0.0000000 )
                  ( -1.0000000  0.0000000  0.0000000 )


      isym = 34     inv. 180 deg rotation - cart. axis [-1,0,1]  

 cryst.   s(34) = (    -1          0          0      )
                  (    -1          1          0      )
                  (    -1          0          1      )

 cart.    s(34) = (  0.0000000  0.0000000  1.0000000 )
                  (  0.0000000  1.0000000  0.0000000 )
                  (  1.0000000  0.0000000  0.0000000 )


      isym = 35     inv.  90 deg rotation - cart. axis [0,1,0]   

 cryst.   s(35) = (     0         -1          1      )
                  (     1         -1          0      )
                  (     0         -1          0      )

 cart.    s(35) = (  0.0000000  0.0000000 -1.0000000 )
                  (  0.0000000 -1.0000000  0.0000000 )
                  (  1.0000000  0.0000000  0.0000000 )


      isym = 36     inv.  90 deg rotation - cart. axis [0,-1,0]  

 cryst.   s(36) = (     0          1         -1      )
                  (     0          0         -1      )
                  (     1          0         -1      )

 cart.    s(36) = (  0.0000000  0.0000000  1.0000000 )
                  (  0.0000000 -1.0000000  0.0000000 )
                  ( -1.0000000  0.0000000  0.0000000 )


      isym = 37     inv. 180 deg rotation - cart. axis [0,1,1]   

 cryst.   s(37) = (     1         -1          0      )
                  (     0         -1          0      )
                  (     0         -1          1      )

 cart.    s(37) = (  1.0000000  0.0000000  0.0000000 )
                  (  0.0000000  0.0000000 -1.0000000 )
                  (  0.0000000 -1.0000000  0.0000000 )


      isym = 38     inv. 180 deg rotation - cart. axis [0,1,-1]  

 cryst.   s(38) = (     0          0          1      )
                  (     0          1          0      )
                  (     1          0          0      )

 cart.    s(38) = (  1.0000000  0.0000000  0.0000000 )
                  (  0.0000000  0.0000000  1.0000000 )
                  (  0.0000000  1.0000000  0.0000000 )


      isym = 39     inv.  90 deg rotation - cart. axis [-1,0,0]  

 cryst.   s(39) = (     0          0         -1      )
                  (     1          0         -1      )
                  (     0          1         -1      )

 cart.    s(39) = ( -1.0000000  0.0000000  0.0000000 )
                  (  0.0000000  0.0000000 -1.0000000 )
                  (  0.0000000  1.0000000  0.0000000 )


      isym = 40     inv.  90 deg rotation - cart. axis [1,0,0]   

 cryst.   s(40) = (    -1          1          0      )
                  (    -1          0          1      )
                  (    -1          0          0      )

 cart.    s(40) = ( -1.0000000  0.0000000  0.0000000 )
                  (  0.0000000  0.0000000  1.0000000 )
                  (  0.0000000 -1.0000000  0.0000000 )


      isym = 41     inv. 120 deg rotation - cart. axis [-1,-1,-1]

 cryst.   s(41) = (     1          0         -1      )
                  (     1         -1          0      )
                  (     1          0          0      )

 cart.    s(41) = (  0.0000000 -1.0000000  0.0000000 )
                  (  0.0000000  0.0000000 -1.0000000 )
                  ( -1.0000000  0.0000000  0.0000000 )


      isym = 42     inv. 120 deg rotation - cart. axis [-1,1,1]  

 cryst.   s(42) = (     0         -1          0      )
                  (     0          0         -1      )
                  (    -1          0          0      )

 cart.    s(42) = (  0.0000000  1.0000000  0.0000000 )
                  (  0.0000000  0.0000000 -1.0000000 )
                  (  1.0000000  0.0000000  0.0000000 )


      isym = 43     inv. 120 deg rotation - cart. axis [1,1,-1]  

 cryst.   s(43) = (    -1          0          1      )
                  (     0          0          1      )
                  (     0         -1          1      )

 cart.    s(43) = (  0.0000000 -1.0000000  0.0000000 )
                  (  0.0000000  0.0000000  1.0000000 )
                  (  1.0000000  0.0000000  0.0000000 )


      isym = 44     inv. 120 deg rotation - cart. axis [1,-1,1]  

 cryst.   s(44) = (     0          1          0      )
                  (    -1          1          0      )
                  (     0          1         -1      )

 cart.    s(44) = (  0.0000000  1.0000000  0.0000000 )
                  (  0.0000000  0.0000000  1.0000000 )
                  ( -1.0000000  0.0000000  0.0000000 )


      isym = 45     inv. 120 deg rotation - cart. axis [1,1,1]   

 cryst.   s(45) = (     0          0          1      )
                  (     0         -1          1      )
                  (    -1          0          1      )

 cart.    s(45) = (  0.0000000  0.0000000 -1.0000000 )
                  ( -1.0000000  0.0000000  0.0000000 )
                  (  0.0000000 -1.0000000  0.0000000 )


      isym = 46     inv. 120 deg rotation - cart. axis [-1,1,-1] 

 cryst.   s(46) = (     1         -1          0      )
                  (     1          0          0      )
                  (     1          0         -1      )

 cart.    s(46) = (  0.0000000  0.0000000 -1.0000000 )
                  (  1.0000000  0.0000000  0.0000000 )
                  (  0.0000000  1.0000000  0.0000000 )


      isym = 47     inv. 120 deg rotation - cart. axis [1,-1,-1] 

 cryst.   s(47) = (     0          0         -1      )
                  (    -1          0          0      )
                  (     0         -1          0      )

 cart.    s(47) = (  0.0000000  0.0000000  1.0000000 )
                  (  1.0000000  0.0000000  0.0000000 )
                  (  0.0000000 -1.0000000  0.0000000 )


      isym = 48     inv. 120 deg rotation - cart. axis [-1,-1,1] 

 cryst.   s(48) = (    -1          1          0      )
                  (     0          1         -1      )
                  (     0          1          0      )

 cart.    s(48) = (  0.0000000  0.0000000  1.0000000 )
                  ( -1.0000000  0.0000000  0.0000000 )
                  (  0.0000000  1.0000000  0.0000000 )


     point group O_h (m-3m) 
     there are 10 classes
     the character table:

       E     8C3   6C2'  6C4   3C2   i     6S4   8S6   3s_h  6s_d 
A_1g   1.00  1.00  1.00  1.00  1.00  1.00  1.00  1.00  1.00  1.00
A_2g   1.00  1.00 -1.00 -1.00  1.00  1.00 -1.00  1.00  1.00 -1.00
E_g    2.00 -1.00  0.00  0.00  2.00  2.00  0.00 -1.00  2.00  0.00
T_1g   3.00  0.00 -1.00  1.00 -1.00  3.00  1.00  0.00 -1.00 -1.00
T_2g   3.00  0.00  1.00 -1.00 -1.00  3.00 -1.00  0.00 -1.00  1.00
A_1u   1.00  1.00  1.00  1.00  1.00 -1.00 -1.00 -1.00 -1.00 -1.00
A_2u   1.00  1.00 -1.00 -1.00  1.00 -1.00  1.00 -1.00 -1.00  1.00
E_u    2.00 -1.00  0.00  0.00  2.00 -2.00  0.00  1.00 -2.00  0.00
T_1u   3.00  0.00 -1.00  1.00 -1.00 -3.00 -1.00  0.00  1.00  1.00
T_2u   3.00  0.00  1.00 -1.00 -1.00 -3.00  1.00  0.00  1.00 -1.00

     the symmetry operations in each class:
     E        1
     3C2      2    4    3
     6C2'     5    6   14   13   10    9
     6C4      7    8   15   16   12   11
     8C3     17   19   20   18   24   21   22   23
     i       25
     3s_h    26   28   27
     6s_d    29   30   38   37   34   33
     6S4     31   32   39   40   36   35
     8S6     41   43   44   42   48   45   46   47

   Cartesian axes

     site n.     atom                  positions (alat units)
         1           Cu  tau(   1) = (   0.0000000   0.0000000   0.0000000  )

   Crystallographic axes

     site n.     atom                  positions (cryst. coord.)
         1           Cu  tau(   1) = (  0.0000000  0.0000000  0.0000000  )

     number of k points=   182  Marzari-Vanderbilt smearing, width (Ry)=  0.0200
                       cart. coord. in units 2pi/alat
        k(    1) = (  -0.0416667   0.0416667   0.0416667), wk =   0.0023148
        k(    2) = (  -0.1250000   0.1250000  -0.0416667), wk =   0.0069444
        k(    3) = (  -0.2083333   0.2083333  -0.1250000), wk =   0.0069444
        k(    4) = (  -0.2916667   0.2916667  -0.2083333), wk =   0.0069444
        k(    5) = (  -0.3750000   0.3750000  -0.2916667), wk =   0.0069444
        k(    6) = (  -0.4583333   0.4583333  -0.3750000), wk =   0.0069444
        k(    7) = (   0.4583333  -0.4583333   0.5416667), wk =   0.0069444
        k(    8) = (   0.3750000  -0.3750000   0.4583333), wk =   0.0069444
        k(    9) = (   0.2916667  -0.2916667   0.3750000), wk =   0.0069444
        k(   10) = (   0.2083333  -0.2083333   0.2916667), wk =   0.0069444
        k(   11) = (   0.1250000  -0.1250000   0.2083333), wk =   0.0069444
        k(   12) = (   0.0416667  -0.0416667   0.1250000), wk =   0.0069444
        k(   13) = (  -0.0416667   0.2083333   0.0416667), wk =   0.0069444
        k(   14) = (  -0.1250000   0.2916667  -0.0416667), wk =   0.0138889
        k(   15) = (  -0.2083333   0.3750000  -0.1250000), wk =   0.0138889
        k(   16) = (  -0.2916667   0.4583333  -0.2083333), wk =   0.0138889
        k(   17) = (  -0.3750000   0.5416667  -0.2916667), wk =   0.0138889
        k(   18) = (   0.5416667  -0.3750000   0.6250000), wk =   0.0138889
        k(   19) = (   0.4583333  -0.2916667   0.5416667), wk =   0.0138889
        k(   20) = (   0.3750000  -0.2083333   0.4583333), wk =   0.0138889
        k(   21) = (   0.2916667  -0.1250000   0.3750000), wk =   0.0138889
        k(   22) = (   0.2083333  -0.0416667   0.2916667), wk =   0.0138889
        k(   23) = (   0.1250000   0.0416667   0.2083333), wk =   0.0138889
        k(   24) = (  -0.0416667   0.3750000   0.0416667), wk =   0.0069444
        k(   25) = (  -0.1250000   0.4583333  -0.0416667), wk =   0.0138889
        k(   26) = (  -0.2083333   0.5416667  -0.1250000), wk =   0.0138889
        k(   27) = (  -0.2916667   0.6250000  -0.2083333), wk =   0.0138889
        k(   28) = (   0.6250000  -0.2916667   0.7083333), wk =   0.0138889
        k(   29) = (   0.5416667  -0.2083333   0.6250000), wk =   0.0138889
        k(   30) = (   0.4583333  -0.1250000   0.5416667), wk =   0.0138889
        k(   31) = (   0.3750000  -0.0416667   0.4583333), wk =   0.0138889
        k(   32) = (   0.2916667   0.0416667   0.3750000), wk =   0.0138889
        k(   33) = (   0.2083333   0.1250000   0.2916667), wk =   0.0138889
        k(   34) = (  -0.0416667   0.5416667   0.0416667), wk =   0.0069444
        k(   35) = (  -0.1250000   0.6250000  -0.0416667), wk =   0.0138889
        k(   36) = (  -0.2083333   0.7083333  -0.1250000), wk =   0.0138889
        k(   37) = (   0.7083333  -0.2083333   0.7916667), wk =   0.0138889
        k(   38) = (   0.6250000  -0.1250000   0.7083333), wk =   0.0138889
        k(   39) = (   0.5416667  -0.0416667   0.6250000), wk =   0.0138889
        k(   40) = (   0.4583333   0.0416667   0.5416667), wk =   0.0138889
        k(   41) = (   0.3750000   0.1250000   0.4583333), wk =   0.0138889
        k(   42) = (   0.2916667   0.2083333   0.3750000), wk =   0.0138889
        k(   43) = (  -0.0416667   0.7083333   0.0416667), wk =   0.0069444
        k(   44) = (  -0.1250000   0.7916667  -0.0416667), wk =   0.0138889
        k(   45) = (   0.7916667  -0.1250000   0.8750000), wk =   0.0138889
        k(   46) = (   0.7083333  -0.0416667   0.7916667), wk =   0.0138889
        k(   47) = (   0.6250000   0.0416667   0.7083333), wk =   0.0138889
        k(   48) = (   0.5416667   0.1250000   0.6250000), wk =   0.0138889
        k(   49) = (   0.4583333   0.2083333   0.5416667), wk =   0.0138889
        k(   50) = (   0.3750000   0.2916667   0.4583333), wk =   0.0138889
        k(   51) = (  -0.0416667   0.8750000   0.0416667), wk =   0.0069444
        k(   52) = (   0.8750000  -0.0416667   0.9583333), wk =   0.0138889
        k(   53) = (   0.7916667   0.0416667   0.8750000), wk =   0.0138889
        k(   54) = (   0.7083333   0.1250000   0.7916667), wk =   0.0138889
        k(   55) = (   0.6250000   0.2083333   0.7083333), wk =   0.0138889
        k(   56) = (   0.5416667   0.2916667   0.6250000), wk =   0.0138889
        k(   57) = (   0.4583333   0.3750000   0.5416667), wk =   0.0138889
        k(   58) = (  -0.0416667  -0.9583333   0.0416667), wk =   0.0069444
        k(   59) = (  -0.1250000  -0.8750000  -0.0416667), wk =   0.0138889
        k(   60) = (  -0.2083333  -0.7916667  -0.1250000), wk =   0.0138889
        k(   61) = (  -0.2916667  -0.7083333  -0.2083333), wk =   0.0138889
        k(   62) = (  -0.3750000  -0.6250000  -0.2916667), wk =   0.0138889
        k(   63) = (  -0.0416667  -0.7916667   0.0416667), wk =   0.0069444
        k(   64) = (  -0.1250000  -0.7083333  -0.0416667), wk =   0.0138889
        k(   65) = (  -0.2083333  -0.6250000  -0.1250000), wk =   0.0138889
        k(   66) = (  -0.2916667  -0.5416667  -0.2083333), wk =   0.0138889
        k(   67) = (  -0.0416667  -0.6250000   0.0416667), wk =   0.0069444
        k(   68) = (  -0.1250000  -0.5416667  -0.0416667), wk =   0.0138889
        k(   69) = (  -0.2083333  -0.4583333  -0.1250000), wk =   0.0138889
        k(   70) = (  -0.0416667  -0.4583333   0.0416667), wk =   0.0069444
        k(   71) = (  -0.1250000  -0.3750000  -0.0416667), wk =   0.0138889
        k(   72) = (  -0.0416667  -0.2916667   0.0416667), wk =   0.0069444
        k(   73) = (  -0.1250000   0.1250000   0.1250000), wk =   0.0023148
        k(   74) = (  -0.2083333   0.2083333   0.0416667), wk =   0.0069444
        k(   75) = (  -0.2916667   0.2916667  -0.0416667), wk =   0.0069444
        k(   76) = (  -0.3750000   0.3750000  -0.1250000), wk =   0.0069444
        k(   77) = (  -0.4583333   0.4583333  -0.2083333), wk =   0.0069444
        k(   78) = (   0.4583333  -0.4583333   0.7083333), wk =   0.0069444
        k(   79) = (   0.3750000  -0.3750000   0.6250000), wk =   0.0069444
        k(   80) = (   0.2916667  -0.2916667   0.5416667), wk =   0.0069444
        k(   81) = (   0.2083333  -0.2083333   0.4583333), wk =   0.0069444
        k(   82) = (   0.1250000  -0.1250000   0.3750000), wk =   0.0069444
        k(   83) = (  -0.1250000   0.2916667   0.1250000), wk =   0.0069444
        k(   84) = (  -0.2083333   0.3750000   0.0416667), wk =   0.0138889
        k(   85) = (  -0.2916667   0.4583333  -0.0416667), wk =   0.0138889
        k(   86) = (  -0.3750000   0.5416667  -0.1250000), wk =   0.0138889
        k(   87) = (   0.5416667  -0.3750000   0.7916667), wk =   0.0138889
        k(   88) = (   0.4583333  -0.2916667   0.7083333), wk =   0.0138889
        k(   89) = (   0.3750000  -0.2083333   0.6250000), wk =   0.0138889
        k(   90) = (   0.2916667  -0.1250000   0.5416667), wk =   0.0138889
        k(   91) = (   0.2083333  -0.0416667   0.4583333), wk =   0.0138889
        k(   92) = (  -0.1250000   0.4583333   0.1250000), wk =   0.0069444
        k(   93) = (  -0.2083333   0.5416667   0.0416667), wk =   0.0138889
        k(   94) = (  -0.2916667   0.6250000  -0.0416667), wk =   0.0138889
        k(   95) = (   0.6250000  -0.2916667   0.8750000), wk =   0.0138889
        k(   96) = (   0.5416667  -0.2083333   0.7916667), wk =   0.0138889
        k(   97) = (   0.4583333  -0.1250000   0.7083333), wk =   0.0138889
        k(   98) = (   0.3750000  -0.0416667   0.6250000), wk =   0.0138889
        k(   99) = (   0.2916667   0.0416667   0.5416667), wk =   0.0138889
        k(  100) = (  -0.1250000   0.6250000   0.1250000), wk =   0.0069444
        k(  101) = (  -0.2083333   0.7083333   0.0416667), wk =   0.0138889
        k(  102) = (   0.7083333  -0.2083333   0.9583333), wk =   0.0138889
        k(  103) = (   0.6250000  -0.1250000   0.8750000), wk =   0.0138889
        k(  104) = (   0.5416667  -0.0416667   0.7916667), wk =   0.0138889
        k(  105) = (   0.4583333   0.0416667   0.7083333), wk =   0.0138889
        k(  106) = (   0.3750000   0.1250000   0.6250000), wk =   0.0138889
        k(  107) = (  -0.1250000   0.7916667   0.1250000), wk =   0.0069444
        k(  108) = (   0.7916667  -0.1250000   1.0416667), wk =   0.0138889
        k(  109) = (   0.7083333  -0.0416667   0.9583333), wk =   0.0138889
        k(  110) = (   0.6250000   0.0416667   0.8750000), wk =   0.0138889
        k(  111) = (   0.5416667   0.1250000   0.7916667), wk =   0.0138889
        k(  112) = (   0.4583333   0.2083333   0.7083333), wk =   0.0138889
        k(  113) = (  -0.1250000  -1.0416667   0.1250000), wk =   0.0069444
        k(  114) = (  -0.2083333  -0.9583333   0.0416667), wk =   0.0138889
        k(  115) = (  -0.2916667  -0.8750000  -0.0416667), wk =   0.0138889
        k(  116) = (  -0.3750000  -0.7916667  -0.1250000), wk =   0.0138889
        k(  117) = (  -0.1250000  -0.8750000   0.1250000), wk =   0.0069444
        k(  118) = (  -0.2083333  -0.7916667   0.0416667), wk =   0.0138889
        k(  119) = (  -0.2916667  -0.7083333  -0.0416667), wk =   0.0138889
        k(  120) = (  -0.1250000  -0.7083333   0.1250000), wk =   0.0069444
        k(  121) = (  -0.2083333  -0.6250000   0.0416667), wk =   0.0138889
        k(  122) = (  -0.1250000  -0.5416667   0.1250000), wk =   0.0069444
        k(  123) = (  -0.2083333   0.2083333   0.2083333), wk =   0.0023148
        k(  124) = (  -0.2916667   0.2916667   0.1250000), wk =   0.0069444
        k(  125) = (  -0.3750000   0.3750000   0.0416667), wk =   0.0069444
        k(  126) = (  -0.4583333   0.4583333  -0.0416667), wk =   0.0069444
        k(  127) = (   0.4583333  -0.4583333   0.8750000), wk =   0.0069444
        k(  128) = (   0.3750000  -0.3750000   0.7916667), wk =   0.0069444
        k(  129) = (   0.2916667  -0.2916667   0.7083333), wk =   0.0069444
        k(  130) = (   0.2083333  -0.2083333   0.6250000), wk =   0.0069444
        k(  131) = (  -0.2083333   0.3750000   0.2083333), wk =   0.0069444
        k(  132) = (  -0.2916667   0.4583333   0.1250000), wk =   0.0138889
        k(  133) = (  -0.3750000   0.5416667   0.0416667), wk =   0.0138889
        k(  134) = (   0.5416667  -0.3750000   0.9583333), wk =   0.0138889
        k(  135) = (   0.4583333  -0.2916667   0.8750000), wk =   0.0138889
        k(  136) = (   0.3750000  -0.2083333   0.7916667), wk =   0.0138889
        k(  137) = (   0.2916667  -0.1250000   0.7083333), wk =   0.0138889
        k(  138) = (  -0.2083333   0.5416667   0.2083333), wk =   0.0069444
        k(  139) = (  -0.2916667   0.6250000   0.1250000), wk =   0.0138889
        k(  140) = (   0.6250000  -0.2916667   1.0416667), wk =   0.0138889
        k(  141) = (   0.5416667  -0.2083333   0.9583333), wk =   0.0138889
        k(  142) = (   0.4583333  -0.1250000   0.8750000), wk =   0.0138889
        k(  143) = (   0.3750000  -0.0416667   0.7916667), wk =   0.0138889
        k(  144) = (  -0.2083333   0.7083333   0.2083333), wk =   0.0069444
        k(  145) = (   0.7083333  -0.2083333   1.1250000), wk =   0.0138889
        k(  146) = (   0.6250000  -0.1250000   1.0416667), wk =   0.0138889
        k(  147) = (   0.5416667  -0.0416667   0.9583333), wk =   0.0138889
        k(  148) = (   0.4583333   0.0416667   0.8750000), wk =   0.0138889
        k(  149) = (  -0.2083333  -1.1250000   0.2083333), wk =   0.0069444
        k(  150) = (  -0.2916667  -1.0416667   0.1250000), wk =   0.0138889
        k(  151) = (  -0.3750000  -0.9583333   0.0416667), wk =   0.0138889
        k(  152) = (  -0.2083333  -0.9583333   0.2083333), wk =   0.0069444
        k(  153) = (  -0.2916667  -0.8750000   0.1250000), wk =   0.0138889
        k(  154) = (  -0.2083333  -0.7916667   0.2083333), wk =   0.0069444
        k(  155) = (  -0.2916667   0.2916667   0.2916667), wk =   0.0023148
        k(  156) = (  -0.3750000   0.3750000   0.2083333), wk =   0.0069444
        k(  157) = (  -0.4583333   0.4583333   0.1250000), wk =   0.0069444
        k(  158) = (   0.4583333  -0.4583333   1.0416667), wk =   0.0069444
        k(  159) = (   0.3750000  -0.3750000   0.9583333), wk =   0.0069444
        k(  160) = (   0.2916667  -0.2916667   0.8750000), wk =   0.0069444
        k(  161) = (  -0.2916667   0.4583333   0.2916667), wk =   0.0069444
        k(  162) = (  -0.3750000   0.5416667   0.2083333), wk =   0.0138889
        k(  163) = (   0.5416667  -0.3750000   1.1250000), wk =   0.0138889
        k(  164) = (   0.4583333  -0.2916667   1.0416667), wk =   0.0138889
        k(  165) = (   0.3750000  -0.2083333   0.9583333), wk =   0.0138889
        k(  166) = (  -0.2916667   0.6250000   0.2916667), wk =   0.0069444
        k(  167) = (   0.6250000  -0.2916667   1.2083333), wk =   0.0138889
        k(  168) = (   0.5416667  -0.2083333   1.1250000), wk =   0.0138889
        k(  169) = (   0.4583333  -0.1250000   1.0416667), wk =   0.0138889
        k(  170) = (  -0.2916667  -1.2083333   0.2916667), wk =   0.0069444
        k(  171) = (  -0.3750000  -1.1250000   0.2083333), wk =   0.0138889
        k(  172) = (  -0.2916667  -1.0416667   0.2916667), wk =   0.0069444
        k(  173) = (  -0.3750000   0.3750000   0.3750000), wk =   0.0023148
        k(  174) = (  -0.4583333   0.4583333   0.2916667), wk =   0.0069444
        k(  175) = (   0.4583333  -0.4583333   1.2083333), wk =   0.0069444
        k(  176) = (   0.3750000  -0.3750000   1.1250000), wk =   0.0069444
        k(  177) = (  -0.3750000   0.5416667   0.3750000), wk =   0.0069444
        k(  178) = (   0.5416667  -0.3750000   1.2916667), wk =   0.0138889
        k(  179) = (   0.4583333  -0.2916667   1.2083333), wk =   0.0138889
        k(  180) = (  -0.3750000  -1.2916667   0.3750000), wk =   0.0069444
        k(  181) = (  -0.4583333   0.4583333   0.4583333), wk =   0.0023148
        k(  182) = (   0.4583333  -0.4583333   1.3750000), wk =   0.0069444

                       cryst. coord.
        k(    1) = (   0.0416667   0.0416667   0.0416667), wk =   0.0023148
        k(    2) = (   0.0416667   0.0416667   0.1250000), wk =   0.0069444
        k(    3) = (   0.0416667   0.0416667   0.2083333), wk =   0.0069444
        k(    4) = (   0.0416667   0.0416667   0.2916667), wk =   0.0069444
        k(    5) = (   0.0416667   0.0416667   0.3750000), wk =   0.0069444
        k(    6) = (   0.0416667   0.0416667   0.4583333), wk =   0.0069444
        k(    7) = (   0.0416667   0.0416667  -0.4583333), wk =   0.0069444
        k(    8) = (   0.0416667   0.0416667  -0.3750000), wk =   0.0069444
        k(    9) = (   0.0416667   0.0416667  -0.2916667), wk =   0.0069444
        k(   10) = (   0.0416667   0.0416667  -0.2083333), wk =   0.0069444
        k(   11) = (   0.0416667   0.0416667  -0.1250000), wk =   0.0069444
        k(   12) = (   0.0416667   0.0416667  -0.0416667), wk =   0.0069444
        k(   13) = (   0.0416667   0.1250000   0.1250000), wk =   0.0069444
        k(   14) = (   0.0416667   0.1250000   0.2083333), wk =   0.0138889
        k(   15) = (   0.0416667   0.1250000   0.2916667), wk =   0.0138889
        k(   16) = (   0.0416667   0.1250000   0.3750000), wk =   0.0138889
        k(   17) = (   0.0416667   0.1250000   0.4583333), wk =   0.0138889
        k(   18) = (   0.0416667   0.1250000  -0.4583333), wk =   0.0138889
        k(   19) = (   0.0416667   0.1250000  -0.3750000), wk =   0.0138889
        k(   20) = (   0.0416667   0.1250000  -0.2916667), wk =   0.0138889
        k(   21) = (   0.0416667   0.1250000  -0.2083333), wk =   0.0138889
        k(   22) = (   0.0416667   0.1250000  -0.1250000), wk =   0.0138889
        k(   23) = (   0.0416667   0.1250000  -0.0416667), wk =   0.0138889
        k(   24) = (   0.0416667   0.2083333   0.2083333), wk =   0.0069444
        k(   25) = (   0.0416667   0.2083333   0.2916667), wk =   0.0138889
        k(   26) = (   0.0416667   0.2083333   0.3750000), wk =   0.0138889
        k(   27) = (   0.0416667   0.2083333   0.4583333), wk =   0.0138889
        k(   28) = (   0.0416667   0.2083333  -0.4583333), wk =   0.0138889
        k(   29) = (   0.0416667   0.2083333  -0.3750000), wk =   0.0138889
        k(   30) = (   0.0416667   0.2083333  -0.2916667), wk =   0.0138889
        k(   31) = (   0.0416667   0.2083333  -0.2083333), wk =   0.0138889
        k(   32) = (   0.0416667   0.2083333  -0.1250000), wk =   0.0138889
        k(   33) = (   0.0416667   0.2083333  -0.0416667), wk =   0.0138889
        k(   34) = (   0.0416667   0.2916667   0.2916667), wk =   0.0069444
        k(   35) = (   0.0416667   0.2916667   0.3750000), wk =   0.0138889
        k(   36) = (   0.0416667   0.2916667   0.4583333), wk =   0.0138889
        k(   37) = (   0.0416667   0.2916667  -0.4583333), wk =   0.0138889
        k(   38) = (   0.0416667   0.2916667  -0.3750000), wk =   0.0138889
        k(   39) = (   0.0416667   0.2916667  -0.2916667), wk =   0.0138889
        k(   40) = (   0.0416667   0.2916667  -0.2083333), wk =   0.0138889
        k(   41) = (   0.0416667   0.2916667  -0.1250000), wk =   0.0138889
        k(   42) = (   0.0416667   0.2916667  -0.0416667), wk =   0.0138889
        k(   43) = (   0.0416667   0.3750000   0.3750000), wk =   0.0069444
        k(   44) = (   0.0416667   0.3750000   0.4583333), wk =   0.0138889
        k(   45) = (   0.0416667   0.3750000  -0.4583333), wk =   0.0138889
        k(   46) = (   0.0416667   0.3750000  -0.3750000), wk =   0.0138889
        k(   47) = (   0.0416667   0.3750000  -0.2916667), wk =   0.0138889
        k(   48) = (   0.0416667   0.3750000  -0.2083333), wk =   0.0138889
        k(   49) = (   0.0416667   0.3750000  -0.1250000), wk =   0.0138889
        k(   50) = (   0.0416667   0.3750000  -0.0416667), wk =   0.0138889
        k(   51) = (   0.0416667   0.4583333   0.4583333), wk =   0.0069444
        k(   52) = (   0.0416667   0.4583333  -0.4583333), wk =   0.0138889
        k(   53) = (   0.0416667   0.4583333  -0.3750000), wk =   0.0138889
        k(   54) = (   0.0416667   0.4583333  -0.2916667), wk =   0.0138889
        k(   55) = (   0.0416667   0.4583333  -0.2083333), wk =   0.0138889
        k(   56) = (   0.0416667   0.4583333  -0.1250000), wk =   0.0138889
        k(   57) = (   0.0416667   0.4583333  -0.0416667), wk =   0.0138889
        k(   58) = (   0.0416667  -0.4583333  -0.4583333), wk =   0.0069444
        k(   59) = (   0.0416667  -0.4583333  -0.3750000), wk =   0.0138889
        k(   60) = (   0.0416667  -0.4583333  -0.2916667), wk =   0.0138889
        k(   61) = (   0.0416667  -0.4583333  -0.2083333), wk =   0.0138889
        k(   62) = (   0.0416667  -0.4583333  -0.1250000), wk =   0.0138889
        k(   63) = (   0.0416667  -0.3750000  -0.3750000), wk =   0.0069444
        k(   64) = (   0.0416667  -0.3750000  -0.2916667), wk =   0.0138889
        k(   65) = (   0.0416667  -0.3750000  -0.2083333), wk =   0.0138889
        k(   66) = (   0.0416667  -0.3750000  -0.1250000), wk =   0.0138889
        k(   67) = (   0.0416667  -0.2916667  -0.2916667), wk =   0.0069444
        k(   68) = (   0.0416667  -0.2916667  -0.2083333), wk =   0.0138889
        k(   69) = (   0.0416667  -0.2916667  -0.1250000), wk =   0.0138889
        k(   70) = (   0.0416667  -0.2083333  -0.2083333), wk =   0.0069444
        k(   71) = (   0.0416667  -0.2083333  -0.1250000), wk =   0.0138889
        k(   72) = (   0.0416667  -0.1250000  -0.1250000), wk =   0.0069444
        k(   73) = (   0.1250000   0.1250000   0.1250000), wk =   0.0023148
        k(   74) = (   0.1250000   0.1250000   0.2083333), wk =   0.0069444
        k(   75) = (   0.1250000   0.1250000   0.2916667), wk =   0.0069444
        k(   76) = (   0.1250000   0.1250000   0.3750000), wk =   0.0069444
        k(   77) = (   0.1250000   0.1250000   0.4583333), wk =   0.0069444
        k(   78) = (   0.1250000   0.1250000  -0.4583333), wk =   0.0069444
        k(   79) = (   0.1250000   0.1250000  -0.3750000), wk =   0.0069444
        k(   80) = (   0.1250000   0.1250000  -0.2916667), wk =   0.0069444
        k(   81) = (   0.1250000   0.1250000  -0.2083333), wk =   0.0069444
        k(   82) = (   0.1250000   0.1250000  -0.1250000), wk =   0.0069444
        k(   83) = (   0.1250000   0.2083333   0.2083333), wk =   0.0069444
        k(   84) = (   0.1250000   0.2083333   0.2916667), wk =   0.0138889
        k(   85) = (   0.1250000   0.2083333   0.3750000), wk =   0.0138889
        k(   86) = (   0.1250000   0.2083333   0.4583333), wk =   0.0138889
        k(   87) = (   0.1250000   0.2083333  -0.4583333), wk =   0.0138889
        k(   88) = (   0.1250000   0.2083333  -0.3750000), wk =   0.0138889
        k(   89) = (   0.1250000   0.2083333  -0.2916667), wk =   0.0138889
        k(   90) = (   0.1250000   0.2083333  -0.2083333), wk =   0.0138889
        k(   91) = (   0.1250000   0.2083333  -0.1250000), wk =   0.0138889
        k(   92) = (   0.1250000   0.2916667   0.2916667), wk =   0.0069444
        k(   93) = (   0.1250000   0.2916667   0.3750000), wk =   0.0138889
        k(   94) = (   0.1250000   0.2916667   0.4583333), wk =   0.0138889
        k(   95) = (   0.1250000   0.2916667  -0.4583333), wk =   0.0138889
        k(   96) = (   0.1250000   0.2916667  -0.3750000), wk =   0.0138889
        k(   97) = (   0.1250000   0.2916667  -0.2916667), wk =   0.0138889
        k(   98) = (   0.1250000   0.2916667  -0.2083333), wk =   0.0138889
        k(   99) = (   0.1250000   0.2916667  -0.1250000), wk =   0.0138889
        k(  100) = (   0.1250000   0.3750000   0.3750000), wk =   0.0069444
        k(  101) = (   0.1250000   0.3750000   0.4583333), wk =   0.0138889
        k(  102) = (   0.1250000   0.3750000  -0.4583333), wk =   0.0138889
        k(  103) = (   0.1250000   0.3750000  -0.3750000), wk =   0.0138889
        k(  104) = (   0.1250000   0.3750000  -0.2916667), wk =   0.0138889
        k(  105) = (   0.1250000   0.3750000  -0.2083333), wk =   0.0138889
        k(  106) = (   0.1250000   0.3750000  -0.1250000), wk =   0.0138889
        k(  107) = (   0.1250000   0.4583333   0.4583333), wk =   0.0069444
        k(  108) = (   0.1250000   0.4583333  -0.4583333), wk =   0.0138889
        k(  109) = (   0.1250000   0.4583333  -0.3750000), wk =   0.0138889
        k(  110) = (   0.1250000   0.4583333  -0.2916667), wk =   0.0138889
        k(  111) = (   0.1250000   0.4583333  -0.2083333), wk =   0.0138889
        k(  112) = (   0.1250000   0.4583333  -0.1250000), wk =   0.0138889
        k(  113) = (   0.1250000  -0.4583333  -0.4583333), wk =   0.0069444
        k(  114) = (   0.1250000  -0.4583333  -0.3750000), wk =   0.0138889
        k(  115) = (   0.1250000  -0.4583333  -0.2916667), wk =   0.0138889
        k(  116) = (   0.1250000  -0.4583333  -0.2083333), wk =   0.0138889
        k(  117) = (   0.1250000  -0.3750000  -0.3750000), wk =   0.0069444
        k(  118) = (   0.1250000  -0.3750000  -0.2916667), wk =   0.0138889
        k(  119) = (   0.1250000  -0.3750000  -0.2083333), wk =   0.0138889
        k(  120) = (   0.1250000  -0.2916667  -0.2916667), wk =   0.0069444
        k(  121) = (   0.1250000  -0.2916667  -0.2083333), wk =   0.0138889
        k(  122) = (   0.1250000  -0.2083333  -0.2083333), wk =   0.0069444
        k(  123) = (   0.2083333   0.2083333   0.2083333), wk =   0.0023148
        k(  124) = (   0.2083333   0.2083333   0.2916667), wk =   0.0069444
        k(  125) = (   0.2083333   0.2083333   0.3750000), wk =   0.0069444
        k(  126) = (   0.2083333   0.2083333   0.4583333), wk =   0.0069444
        k(  127) = (   0.2083333   0.2083333  -0.4583333), wk =   0.0069444
        k(  128) = (   0.2083333   0.2083333  -0.3750000), wk =   0.0069444
        k(  129) = (   0.2083333   0.2083333  -0.2916667), wk =   0.0069444
        k(  130) = (   0.2083333   0.2083333  -0.2083333), wk =   0.0069444
        k(  131) = (   0.2083333   0.2916667   0.2916667), wk =   0.0069444
        k(  132) = (   0.2083333   0.2916667   0.3750000), wk =   0.0138889
        k(  133) = (   0.2083333   0.2916667   0.4583333), wk =   0.0138889
        k(  134) = (   0.2083333   0.2916667  -0.4583333), wk =   0.0138889
        k(  135) = (   0.2083333   0.2916667  -0.3750000), wk =   0.0138889
        k(  136) = (   0.2083333   0.2916667  -0.2916667), wk =   0.0138889
        k(  137) = (   0.2083333   0.2916667  -0.2083333), wk =   0.0138889
        k(  138) = (   0.2083333   0.3750000   0.3750000), wk =   0.0069444
        k(  139) = (   0.2083333   0.3750000   0.4583333), wk =   0.0138889
        k(  140) = (   0.2083333   0.3750000  -0.4583333), wk =   0.0138889
        k(  141) = (   0.2083333   0.3750000  -0.3750000), wk =   0.0138889
        k(  142) = (   0.2083333   0.3750000  -0.2916667), wk =   0.0138889
        k(  143) = (   0.2083333   0.3750000  -0.2083333), wk =   0.0138889
        k(  144) = (   0.2083333   0.4583333   0.4583333), wk =   0.0069444
        k(  145) = (   0.2083333   0.4583333  -0.4583333), wk =   0.0138889
        k(  146) = (   0.2083333   0.4583333  -0.3750000), wk =   0.0138889
        k(  147) = (   0.2083333   0.4583333  -0.2916667), wk =   0.0138889
        k(  148) = (   0.2083333   0.4583333  -0.2083333), wk =   0.0138889
        k(  149) = (   0.2083333  -0.4583333  -0.4583333), wk =   0.0069444
        k(  150) = (   0.2083333  -0.4583333  -0.3750000), wk =   0.0138889
        k(  151) = (   0.2083333  -0.4583333  -0.2916667), wk =   0.0138889
        k(  152) = (   0.2083333  -0.3750000  -0.3750000), wk =   0.0069444
        k(  153) = (   0.2083333  -0.3750000  -0.2916667), wk =   0.0138889
        k(  154) = (   0.2083333  -0.2916667  -0.2916667), wk =   0.0069444
        k(  155) = (   0.2916667   0.2916667   0.2916667), wk =   0.0023148
        k(  156) = (   0.2916667   0.2916667   0.3750000), wk =   0.0069444
        k(  157) = (   0.2916667   0.2916667   0.4583333), wk =   0.0069444
        k(  158) = (   0.2916667   0.2916667  -0.4583333), wk =   0.0069444
        k(  159) = (   0.2916667   0.2916667  -0.3750000), wk =   0.0069444
        k(  160) = (   0.2916667   0.2916667  -0.2916667), wk =   0.0069444
        k(  161) = (   0.2916667   0.3750000   0.3750000), wk =   0.0069444
        k(  162) = (   0.2916667   0.3750000   0.4583333), wk =   0.0138889
        k(  163) = (   0.2916667   0.3750000  -0.4583333), wk =   0.0138889
        k(  164) = (   0.2916667   0.3750000  -0.3750000), wk =   0.0138889
        k(  165) = (   0.2916667   0.3750000  -0.2916667), wk =   0.0138889
        k(  166) = (   0.2916667   0.4583333   0.4583333), wk =   0.0069444
        k(  167) = (   0.2916667   0.4583333  -0.4583333), wk =   0.0138889
        k(  168) = (   0.2916667   0.4583333  -0.3750000), wk =   0.0138889
        k(  169) = (   0.2916667   0.4583333  -0.2916667), wk =   0.0138889
        k(  170) = (   0.2916667  -0.4583333  -0.4583333), wk =   0.0069444
        k(  171) = (   0.2916667  -0.4583333  -0.3750000), wk =   0.0138889
        k(  172) = (   0.2916667  -0.3750000  -0.3750000), wk =   0.0069444
        k(  173) = (   0.3750000   0.3750000   0.3750000), wk =   0.0023148
        k(  174) = (   0.3750000   0.3750000   0.4583333), wk =   0.0069444
        k(  175) = (   0.3750000   0.3750000  -0.4583333), wk =   0.0069444
        k(  176) = (   0.3750000   0.3750000  -0.3750000), wk =   0.0069444
        k(  177) = (   0.3750000   0.4583333   0.4583333), wk =   0.0069444
        k(  178) = (   0.3750000   0.4583333  -0.4583333), wk =   0.0138889
        k(  179) = (   0.3750000   0.4583333  -0.3750000), wk =   0.0138889
        k(  180) = (   0.3750000  -0.4583333  -0.4583333), wk =   0.0069444
        k(  181) = (   0.4583333   0.4583333   0.4583333), wk =   0.0023148
        k(  182) = (   0.4583333   0.4583333  -0.4583333), wk =   0.0069444

     Dense  grid:     1807 G-vectors     FFT dimensions: (  18,  18,  18)

     Largest allocated arrays     est. size (Mb)     dimensions
        Kohn-Sham Wavefunctions         0.03 Mb     (     226,   10)
        NL pseudopotentials             0.04 Mb     (     226,   13)
        Each V/rho on FFT grid          0.09 Mb     (    5832)
        Each G-vector array             0.01 Mb     (    1807)
        G-vector shells                 0.00 Mb     (      49)
     Largest temporary arrays     est. size (Mb)     dimensions
        Auxiliary wavefunctions         0.14 Mb     (     226,   40)
        Each subspace H/S matrix        0.02 Mb     (      40,   40)
        Each <psi_i|beta_j> matrix      0.00 Mb     (      13,   10)
        Arrays for rho mixing           0.71 Mb     (    5832,    8)

     Initial potential from superposition of free atoms
     Check: negative starting charge=   -0.000909

     starting charge   10.99968, renormalised to   11.00000

     negative rho (up, down):  9.087E-04 0.000E+00
     Starting wfc are    6 randomized atomic wfcs +    4 random wfc

     total cpu time spent up to now is        2.6 secs

     per-process dynamical memory:    11.6 Mb

     Self-consistent Calculation

     iteration #  1     ecut=    30.00 Ry     beta=0.70
     Davidson diagonalization with overlap
     ethr =  1.00E-02,  avg # of iterations =  4.5

     negative rho (up, down):  8.743E-04 0.000E+00

     total cpu time spent up to now is       10.2 secs

     total energy              =     -87.72755538 Ry
     Harris-Foulkes estimate   =     -87.90910767 Ry
     estimated scf accuracy    <       0.24575199 Ry

     iteration #  2     ecut=    30.00 Ry     beta=0.70
     Davidson diagonalization with overlap
     ethr =  2.23E-03,  avg # of iterations =  2.0

     negative rho (up, down):  9.307E-04 0.000E+00

     total cpu time spent up to now is       15.4 secs

     total energy              =     -87.80986725 Ry
     Harris-Foulkes estimate   =     -87.91352798 Ry
     estimated scf accuracy    <       0.21081645 Ry

     iteration #  3     ecut=    30.00 Ry     beta=0.70
     Davidson diagonalization with overlap
     ethr =  1.92E-03,  avg # of iterations =  1.0

     negative rho (up, down):  9.445E-04 0.000E+00

     total cpu time spent up to now is       23.8 secs

     total energy              =     -87.84301737 Ry
     Harris-Foulkes estimate   =     -87.84367657 Ry
     estimated scf accuracy    <       0.00125416 Ry

     iteration #  4     ecut=    30.00 Ry     beta=0.70
     Davidson diagonalization with overlap
     ethr =  1.14E-05,  avg # of iterations =  2.1

     negative rho (up, down):  9.475E-04 0.000E+00

     total cpu time spent up to now is       36.5 secs

     total energy              =     -87.84348878 Ry
     Harris-Foulkes estimate   =     -87.84349398 Ry
     estimated scf accuracy    <       0.00003432 Ry

     iteration #  5     ecut=    30.00 Ry     beta=0.70
     Davidson diagonalization with overlap
     ethr =  3.12E-07,  avg # of iterations =  1.0

     negative rho (up, down):  9.477E-04 0.000E+00

     total cpu time spent up to now is       47.4 secs

     total energy              =     -87.84348327 Ry
     Harris-Foulkes estimate   =     -87.84348953 Ry
     estimated scf accuracy    <       0.00001383 Ry

     iteration #  6     ecut=    30.00 Ry     beta=0.70
     Davidson diagonalization with overlap
     ethr =  1.26E-07,  avg # of iterations =  1.0

     negative rho (up, down):  9.476E-04 0.000E+00

     total cpu time spent up to now is       56.9 secs

     End of self-consistent calculation

          k =-0.0417 0.0417 0.0417 (   220 PWs)   bands (ev):

     4.5387  10.4810  10.5067  10.5067  11.3171  11.3171  37.0308  38.4462
    39.1283  39.1283

     occupation numbers 
     1.0000   1.0000   1.0000   1.0000   1.0000   1.0000   0.0000   0.0000
     0.0000   0.0000

          k =-0.1250 0.1250-0.0417 (   219 PWs)   bands (ev):

     4.8733  10.4090  10.5643  10.5758  11.2634  11.3312  34.4071  36.2930
    38.6655  39.5692

     occupation numbers 
     1.0000   1.0000   1.0000   1.0000   1.0000   1.0000   0.0000   0.0000
     0.0000   0.0000

          k =-0.2083 0.2083-0.1250 (   216 PWs)   bands (ev):

     5.6788  10.2871  10.6560  10.6631  11.2343  11.3769  29.8823  35.2452
    38.3937  38.8144

     occupation numbers 
     1.0000   1.0000   1.0000   1.0000   1.0000   1.0000   0.0000   0.0000
     0.0000   0.0000

          k =-0.2917 0.2917-0.2083 (   215 PWs)   bands (ev):

     6.8354  10.2503  10.6415  10.6637  11.3595  11.5453  25.6378  34.5659
    37.6390  38.0287

     occupation numbers 
     1.0000   1.0000   1.0000   1.0000   1.0000   1.0000   0.0000   0.0000
     0.0000   0.0000

          k =-0.3750 0.3750-0.2917 (   223 PWs)   bands (ev):

     7.9559  10.5503  10.5764  10.6426  11.5997  11.8139  21.8489  34.2708
    36.7469  37.2201

     occupation numbers 
     1.0000   1.0000   1.0000   1.0000   1.0000   1.0000   0.0000   0.0000
     0.0000   0.0000

          k =-0.4583 0.4583-0.3750 (   224 PWs)   bands (ev):

     8.4702  10.4695  10.5015  11.5058  11.8096  12.3853  18.7656  34.3971
    36.0545  36.2574

     occupation numbers 
     1.0000   1.0000   1.0000   1.0000   1.0000   1.0000   0.0000   0.0000
     0.0000   0.0000

          k = 0.4583-0.4583 0.5417 (   226 PWs)   bands (ev):

     8.5506  10.4416  10.4841  11.6686  11.8979  12.9762  17.6230  34.9371
    35.4414  35.7402

     occupation numbers 
     1.0000   1.0000   1.0000   1.0000   1.0000   1.0071   0.0000   0.0000
     0.0000   0.0000

          k = 0.3750-0.3750 0.4583 (   224 PWs)   bands (ev):

     8.3685  10.4832  10.5305  11.2300  11.8344  12.0496  19.6784  35.0235
    35.4840  36.2125

     occupation numbers 
     1.0000   1.0000   1.0000   1.0000   1.0000   1.0000   0.0000   0.0000
     0.0000   0.0000

          k = 0.2917-0.2917 0.3750 (   221 PWs)   bands (ev):

     7.6289  10.4247  10.5770  10.6154  11.5854  11.6542  23.0517  35.0601
    35.8308  37.5193

     occupation numbers 
     1.0000   1.0000   1.0000   1.0000   1.0000   1.0000   0.0000   0.0000
     0.0000   0.0000

          k = 0.2083-0.2083 0.2917 (   219 PWs)   bands (ev):

     6.4257  10.2343  10.6623  10.6770  11.3203  11.4546  27.0073  35.5375
    36.3303  38.9224

     occupation numbers 
     1.0000   1.0000   1.0000   1.0000   1.0000   1.0000   0.0000   0.0000
     0.0000   0.0000

          k = 0.1250-0.1250 0.2083 (   224 PWs)   bands (ev):

     5.3625  10.3228  10.6363  10.6402  11.2306  11.3517  31.3764  36.4281
    36.9441  39.6614

     occupation numbers 
     1.0000   1.0000   1.0000   1.0000   1.0000   1.0000   0.0000   0.0000
     0.0000   0.0000

          k = 0.0417-0.0417 0.1250 (   223 PWs)   bands (ev):

     4.7068  10.4357  10.5436  10.5458  11.2733  11.3367  35.8730  37.6213
    37.6910  39.2207

     occupation numbers 
     1.0000   1.0000   1.0000   1.0000   1.0000   1.0000   0.0000   0.0000
     0.0000   0.0000

          k =-0.0417 0.2083 0.0417 (   221 PWs)   bands (ev):

     5.0388  10.3426  10.6215  10.6229  11.1923  11.3748  34.5215  36.0597
    36.5891  38.4212

     occupation numbers 
     1.0000   1.0000   1.0000   1.0000   1.0000   1.0000   0.0000   0.0000
     0.0000   0.0000

          k =-0.1250 0.2917-0.0417 (   218 PWs)   bands (ev):

     5.6826  10.2100  10.7077  10.7388  11.1235  11.4371  31.6076  33.4441
    36.9950  38.7774

     occupation numbers 
     1.0000   1.0000   1.0000   1.0000   1.0000   1.0000   0.0000   0.0000
     0.0000   0.0000

          k =-0.2083 0.3750-0.1250 (   221 PWs)   bands (ev):

     6.7222  10.0984  10.6522  10.7941  11.2697  11.5985  27.2680  32.5837
    36.2557  37.7424

     occupation numbers 
     1.0000   1.0000   1.0000   1.0000   1.0000   1.0000   0.0000   0.0000
     0.0000   0.0000

          k =-0.2917 0.4583-0.2083 (   219 PWs)   bands (ev):

     7.8865  10.1888  10.5065  10.7365  11.6030  11.9340  23.3077  32.1817
    35.0007  36.3577

     occupation numbers 
     1.0000   1.0000   1.0000   1.0000   1.0000   1.0000   0.0000   0.0000
     0.0000   0.0000

          k =-0.3750 0.5417-0.2917 (   225 PWs)   bands (ev):

     8.5795  10.3620  10.6399  10.7304  11.8336  12.7555  19.8960  32.2479
    33.4217  35.9833

     occupation numbers 
     1.0000   1.0000   1.0000   1.0000   1.0000   1.0002   0.0000   0.0000
     0.0000   0.0000

          k = 0.5417-0.3750 0.6250 (   224 PWs)   bands (ev):

     8.7418  10.3160  10.6018  11.0878  11.8841  13.9036  17.7264  32.0804
    32.9483  36.0682

     occupation numbers 
     1.0000   1.0000   1.0000   1.0000   1.0000   0.0581   0.0000   0.0000
     0.0000   0.0000

          k = 0.4583-0.2917 0.5417 (   225 PWs)   bands (ev):

     8.6744  10.3544  10.6146  10.9311  11.7827  13.2153  18.9561  31.3574
    34.0249  36.5659

     occupation numbers 
     1.0000   1.0000   1.0000   1.0000   1.0000   1.0660   0.0000   0.0000
     0.0000   0.0000

          k = 0.3750-0.2083 0.4583 (   219 PWs)   bands (ev):

     8.2035  10.3611  10.4660  10.6933  11.5438  12.2431  22.1026  31.1045
    35.5888  37.4390

     occupation numbers 
     1.0000   1.0000   1.0000   1.0000   1.0000   1.0000   0.0000   0.0000
     0.0000   0.0000

          k = 0.2917-0.1250 0.3750 (   218 PWs)   bands (ev):

     7.1234  10.1217  10.6026  10.7801  11.2559  11.7719  25.9037  31.3300
    37.4383  38.5949

     occupation numbers 
     1.0000   1.0000   1.0000   1.0000   1.0000   1.0000   0.0000   0.0000
     0.0000   0.0000

          k = 0.2083-0.0417 0.2917 (   218 PWs)   bands (ev):

     5.9925  10.1943  10.6808  10.7603  11.1261  11.4977  30.1224  32.0271
    38.7825  40.0508

     occupation numbers 
     1.0000   1.0000   1.0000   1.0000   1.0000   1.0000   0.0000   0.0000
     0.0000   0.0000

          k = 0.1250 0.0417 0.2083 (   219 PWs)   bands (ev):

     5.2019  10.3309  10.6307  10.6347  11.2004  11.3699  32.9629  34.8448
    38.0568  39.7331

     occupation numbers 
     1.0000   1.0000   1.0000   1.0000   1.0000   1.0000   0.0000   0.0000
     0.0000   0.0000

          k =-0.0417 0.3750 0.0417 (   218 PWs)   bands (ev):

     6.1464  10.0521  10.8372  10.8814  11.0257  11.4952  31.8869  32.9907
    34.6703  35.9428

     occupation numbers 
     1.0000   1.0000   1.0000   1.0000   1.0000   1.0000   0.0000   0.0000
     0.0000   0.0000

          k =-0.1250 0.4583-0.0417 (   220 PWs)   bands (ev):

     7.0037   9.8930  10.7133  11.0374  11.2378  11.6241  29.2049  30.8982
    34.0117  35.3541

     occupation numbers 
     1.0000   1.0000   1.0000   1.0000   1.0000   1.0000   0.0000   0.0000
     0.0000   0.0000

          k =-0.2083 0.5417-0.1250 (   220 PWs)   bands (ev):

     8.0530   9.8181  10.5139  11.0290  11.6553  12.0178  25.1612  30.3037
    31.8632  35.1231

     occupation numbers 
     1.0000   1.0000   1.0000   1.0000   1.0000   1.0000   0.0000   0.0000
     0.0000   0.0000

          k =-0.2917 0.6250-0.2083 (   223 PWs)   bands (ev):

     8.8244   9.9322  10.4111  10.9499  11.8672  13.1014  21.5161  29.8986
    30.3649  35.0017

     occupation numbers 
     1.0000   1.0000   1.0000   1.0000   1.0000   1.0291   0.0000   0.0000
     0.0000   0.0000

          k = 0.6250-0.2917 0.7083 (   224 PWs)   bands (ev):

     9.0775  10.0204  10.5552  10.8725  11.8941  14.7937  18.5744  28.5286
    30.8146  35.2177

     occupation numbers 
     1.0000   1.0000   1.0000   1.0000   1.0000   0.0000   0.0000   0.0000
     0.0000   0.0000

          k = 0.5417-0.2083 0.6250 (   222 PWs)   bands (ev):

     9.1113  10.0800  10.5532  10.8421  11.7616  14.8560  18.5814  27.5695
    31.8689  35.8550

     occupation numbers 
     1.0000   1.0000   1.0000   1.0000   1.0000   0.0000   0.0000   0.0000
     0.0000   0.0000

          k = 0.4583-0.1250 0.5417 (   221 PWs)   bands (ev):

     8.9074  10.1923  10.2435  10.8828  11.5057  13.3262  21.5376  27.1106
    33.4124  36.9825

     occupation numbers 
     1.0000   1.0000   1.0000   1.0000   1.0000   1.0812   0.0000   0.0000
     0.0000   0.0000

          k = 0.3750-0.0417 0.4583 (   216 PWs)   bands (ev):

     8.1023   9.9930  10.4312  10.9737  11.1897  12.3670  25.1541  27.1919
    35.3655  38.6180

     occupation numbers 
     1.0000   1.0000   1.0000   1.0000   1.0000   1.0000   0.0000   0.0000
     0.0000   0.0000

          k = 0.2917 0.0417 0.3750 (   217 PWs)   bands (ev):

     7.0092  10.0668  10.6043  10.9036  11.0941  11.8092  27.5122  29.4555
    37.5982  39.7915

     occupation numbers 
     1.0000   1.0000   1.0000   1.0000   1.0000   1.0000   0.0000   0.0000
     0.0000   0.0000

          k = 0.2083 0.1250 0.2917 (   217 PWs)   bands (ev):

     6.1393  10.2102  10.6746  10.7167  11.2126  11.4726  28.5118  33.8766
    37.4150  39.9680

     occupation numbers 
     1.0000   1.0000   1.0000   1.0000   1.0000   1.0000   0.0000   0.0000
     0.0000   0.0000

          k =-0.0417 0.5417 0.0417 (   218 PWs)   bands (ev):

     7.6018   9.6965  10.8747  11.2421  11.3506  11.6483  29.5672  30.4053
    31.2482  33.3631

     occupation numbers 
     1.0000   1.0000   1.0000   1.0000   1.0000   1.0000   0.0000   0.0000
     0.0000   0.0000

          k =-0.1250 0.6250-0.0417 (   219 PWs)   bands (ev):

     8.3215   9.5572  10.8487  11.4029  11.6689  12.0251  27.2603  28.7082
    29.0371  33.9714

     occupation numbers 
     1.0000   1.0000   1.0000   1.0000   1.0000   1.0000   0.0000   0.0000
     0.0000   0.0000

          k =-0.2083 0.7083-0.1250 (   221 PWs)   bands (ev):

     8.8952   9.5336  10.7064  11.3345  11.8866  13.3274  23.5858  26.9091
    28.6097  34.1124

     occupation numbers 
     1.0000   1.0000   1.0000   1.0000   1.0000   1.0810   0.0000   0.0000
     0.0000   0.0000

          k = 0.7083-0.2083 0.7917 (   221 PWs)   bands (ev):

     9.2219   9.6253  10.5726  11.2325  11.9197  15.3164  20.2814  25.3529
    28.9837  34.3163

     occupation numbers 
     1.0000   1.0000   1.0000   1.0000   1.0000   0.0000   0.0000   0.0000
     0.0000   0.0000

          k = 0.6250-0.1250 0.7083 (   224 PWs)   bands (ev):

     9.4274   9.7394  10.4124  11.1457  11.7892  16.8300  18.5066  24.2659
    29.9446  34.8343

     occupation numbers 
     1.0000   1.0000   1.0000   1.0000   1.0000   0.0000   0.0000   0.0000
     0.0000   0.0000

          k = 0.5417-0.0417 0.6250 (   225 PWs)   bands (ev):

     9.4667   9.9273  10.1377  11.0955  11.5588  14.9131  21.1416  23.7748
    31.4120  35.7455

     occupation numbers 
     1.0000   1.0000   1.0000   1.0000   1.0000   0.0000   0.0000   0.0000
     0.0000   0.0000

          k = 0.4583 0.0417 0.5417 (   220 PWs)   bands (ev):

     8.9990  10.0115  10.1981  11.0121  11.3715  13.3418  23.0392  25.2840
    33.2870  37.0433

     occupation numbers 
     1.0000   1.0000   1.0000   1.0000   1.0000   1.0773   0.0000   0.0000
     0.0000   0.0000

          k = 0.3750 0.1250 0.4583 (   221 PWs)   bands (ev):

     8.1398  10.1118  10.4452  10.8242  11.3638  12.3256  23.5755  29.0610
    35.4463  38.1968

     occupation numbers 
     1.0000   1.0000   1.0000   1.0000   1.0000   1.0000   0.0000   0.0000
     0.0000   0.0000

          k = 0.2917 0.2083 0.3750 (   218 PWs)   bands (ev):

     7.3388  10.2392  10.5950  10.6804  11.4307  11.7056  24.4049  33.3292
    36.6992  37.9138

     occupation numbers 
     1.0000   1.0000   1.0000   1.0000   1.0000   1.0000   0.0000   0.0000
     0.0000   0.0000

          k =-0.0417 0.7083 0.0417 (   218 PWs)   bands (ev):

     8.5583   9.3728  11.4812  11.6157  11.8037  12.2029  26.3756  27.7801
    28.4494  32.4501

     occupation numbers 
     1.0000   1.0000   1.0000   1.0000   1.0000   1.0000   0.0000   0.0000
     0.0000   0.0000

          k =-0.1250 0.7917-0.0417 (   220 PWs)   bands (ev):

     8.7690   9.2931  11.3978  11.7212  11.8898  13.5829  24.3235  25.9175
    27.3714  33.1953

     occupation numbers 
     1.0000   1.0000   1.0000   1.0000   1.0000   0.6811   0.0000   0.0000
     0.0000   0.0000

          k = 0.7917-0.1250 0.8750 (   220 PWs)   bands (ev):

     8.9958   9.3431  11.1164  11.5877  11.9612  15.5879  22.5011  22.9165
    27.5682  33.6163

     occupation numbers 
     1.0000   1.0000   1.0000   1.0000   1.0000   0.0000   0.0000   0.0000
     0.0000   0.0000

          k = 0.7083-0.0417 0.7917 (   222 PWs)   bands (ev):

     9.2602   9.4946  10.7412  11.4396  11.8683  17.8568  19.5928  21.9557
    28.3980  34.0505

     occupation numbers 
     1.0000   1.0000   1.0000   1.0000   1.0000   0.0000   0.0000   0.0000
     0.0000   0.0000

          k = 0.6250 0.0417 0.7083 (   221 PWs)   bands (ev):

     9.5098   9.6806  10.3700  11.2420  11.7286  17.0184  19.4467  22.6757
    29.7689  34.7621

     occupation numbers 
     1.0000   1.0000   1.0000   1.0000   1.0000   0.0000   0.0000   0.0000
     0.0000   0.0000

          k = 0.5417 0.1250 0.6250 (   226 PWs)   bands (ev):

     9.3107   9.9811  10.3136  10.9840  11.6534  14.9189  19.7958  25.5068
    31.5647  35.7825

     occupation numbers 
     1.0000   1.0000   1.0000   1.0000   1.0000   0.0000   0.0000   0.0000
     0.0000   0.0000

          k = 0.4583 0.2083 0.5417 (   222 PWs)   bands (ev):

     8.7855  10.2880  10.5243  10.7443  11.6552  13.2883  20.1322  29.1749
    33.6605  36.8366

     occupation numbers 
     1.0000   1.0000   1.0000   1.0000   1.0000   1.0827   0.0000   0.0000
     0.0000   0.0000

          k = 0.3750 0.2917 0.4583 (   223 PWs)   bands (ev):

     8.2810  10.4810  10.5899  10.7546  11.7132  12.1255  20.7971  33.2160
    35.7140  36.5718

     occupation numbers 
     1.0000   1.0000   1.0000   1.0000   1.0000   1.0000   0.0000   0.0000
     0.0000   0.0000

          k =-0.0417 0.8750 0.0417 (   221 PWs)   bands (ev):

     8.7037   9.1635  11.8286  11.8859  11.9729  14.3223  22.3548  26.6728
    27.2792  31.9785

     occupation numbers 
     1.0000   1.0000   1.0000   1.0000   1.0000   0.0000   0.0000   0.0000
     0.0000   0.0000

          k = 0.8750-0.0417 0.9583 (   222 PWs)   bands (ev):

     8.7757   9.1674  11.7048  11.8078  12.0248  15.6062  21.1986  25.2837
    26.6995  32.8787

     occupation numbers 
     1.0000   1.0000   1.0000   1.0000   1.0000   0.0000   0.0000   0.0000
     0.0000   0.0000

          k = 0.7917 0.0417 0.8750 (   221 PWs)   bands (ev):

     8.9826   9.3040  11.2215  11.6454  11.9692  16.5806  21.3769  22.4956
    27.3537  33.5218

     occupation numbers 
     1.0000   1.0000   1.0000   1.0000   1.0000   0.0000   0.0000   0.0000
     0.0000   0.0000

          k = 0.7083 0.1250 0.7917 (   221 PWs)   bands (ev):

     9.2606   9.5338  10.6773  11.3588  11.8967  16.6602  19.8811  23.3791
    28.5947  34.1373

     occupation numbers 
     1.0000   1.0000   1.0000   1.0000   1.0000   0.0000   0.0000   0.0000
     0.0000   0.0000

          k = 0.6250 0.2083 0.7083 (   224 PWs)   bands (ev):

     9.2757   9.8585  10.4792  11.0101  11.8554  15.9783  18.2470  26.2978
    30.2940  34.9833

     occupation numbers 
     1.0000   1.0000   1.0000   1.0000   1.0000   0.0000   0.0000   0.0000
     0.0000   0.0000

          k = 0.5417 0.2917 0.6250 (   225 PWs)   bands (ev):

     8.9163  10.2002  10.7085  10.8167  11.8443  14.5509  17.8424  29.7890
    32.3237  35.9563

     occupation numbers 
     1.0000   1.0000   1.0000   1.0000   1.0000   0.0000   0.0000   0.0000
     0.0000   0.0000

          k = 0.4583 0.3750 0.5417 (   223 PWs)   bands (ev):

     8.5931  10.4092  10.5305  11.3462  11.8697  13.0985  18.0899  33.5548
    34.5026  36.1523

     occupation numbers 
     1.0000   1.0000   1.0000   1.0000   1.0000   1.0283   0.0000   0.0000
     0.0000   0.0000

          k =-0.0417-0.9583 0.0417 (   222 PWs)   bands (ev):

     8.6992   9.1190  11.8591  11.9632  12.0284  15.2077  21.1293  26.4417
    27.0361  31.8868

     occupation numbers 
     1.0000   1.0000   1.0000   1.0000   1.0000   0.0000   0.0000   0.0000
     0.0000   0.0000

          k =-0.1250-0.8750-0.0417 (   220 PWs)   bands (ev):

     8.7835   9.2101  11.5919  11.7949  11.9719  14.7075  22.4530  25.4977
    26.9265  32.9833

     occupation numbers 
     1.0000   1.0000   1.0000   1.0000   1.0000   0.0000   0.0000   0.0000
     0.0000   0.0000

          k =-0.2083-0.7917-0.1250 (   222 PWs)   bands (ev):

     8.9914   9.4209  10.9289  11.4782  11.9372  14.3886  23.0161  24.7169
    27.9902  33.8097

     occupation numbers 
     1.0000   1.0000   1.0000   1.0000   1.0000   0.0000   0.0000   0.0000
     0.0000   0.0000

          k =-0.2917-0.7083-0.2083 (   222 PWs)   bands (ev):

     9.0922   9.7662  10.4685  11.0895  11.9138  14.0996  20.8263  27.5728
    29.5590  34.5985

     occupation numbers 
     1.0000   1.0000   1.0000   1.0000   1.0000   0.0037   0.0000   0.0000
     0.0000   0.0000

          k =-0.3750-0.6250-0.2917 (   226 PWs)   bands (ev):

     8.8447  10.1993  10.6308  10.7557  11.8903  13.6774  19.1493  30.8584
    31.5348  35.5473

     occupation numbers 
     1.0000   1.0000   1.0000   1.0000   1.0000   0.4239   0.0000   0.0000
     0.0000   0.0000

          k =-0.0417-0.7917 0.0417 (   219 PWs)   bands (ev):

     8.6822   9.2498  11.7318  11.7535  11.8861  13.1817  24.2095  27.1244
    27.7559  32.1644

     occupation numbers 
     1.0000   1.0000   1.0000   1.0000   1.0000   1.0545   0.0000   0.0000
     0.0000   0.0000

          k =-0.1250-0.7083-0.0417 (   221 PWs)   bands (ev):

     8.6557   9.4113  11.1260  11.5808  11.7975  12.6286  26.3844  26.6334
    28.0214  33.5211

     occupation numbers 
     1.0000   1.0000   1.0000   1.0000   1.0000   1.0000   0.0000   0.0000
     0.0000   0.0000

          k =-0.2083-0.6250-0.1250 (   221 PWs)   bands (ev):

     8.5939   9.6707  10.5439  11.1785  11.7997  12.5283  24.3035  29.1826
    29.5151  34.5402

     occupation numbers 
     1.0000   1.0000   1.0000   1.0000   1.0000   1.0000   0.0000   0.0000
     0.0000   0.0000

          k =-0.2917-0.5417-0.2083 (   223 PWs)   bands (ev):

     8.4074  10.0857  10.4265  10.8286  11.7693  12.3722  22.3445  31.1433
    32.5223  35.5545

     occupation numbers 
     1.0000   1.0000   1.0000   1.0000   1.0000   1.0000   0.0000   0.0000
     0.0000   0.0000

          k =-0.0417-0.6250 0.0417 (   218 PWs)   bands (ev):

     8.2110   9.5249  11.1153  11.4358  11.6434  11.7267  28.5328  28.8175
    29.3393  32.8441

     occupation numbers 
     1.0000   1.0000   1.0000   1.0000   1.0000   1.0000   0.0000   0.0000
     0.0000   0.0000

          k =-0.1250-0.5417-0.0417 (   220 PWs)   bands (ev):

     7.7267   9.7214  10.7107  11.2160  11.4538  11.7557  28.1709  29.7833
    31.4560  34.5631

     occupation numbers 
     1.0000   1.0000   1.0000   1.0000   1.0000   1.0000   0.0000   0.0000
     0.0000   0.0000

          k =-0.2083-0.4583-0.1250 (   221 PWs)   bands (ev):

     7.3861   9.9640  10.5773  10.8984  11.4425  11.7550  26.1508  31.3884
    34.4012  35.9661

     occupation numbers 
     1.0000   1.0000   1.0000   1.0000   1.0000   1.0000   0.0000   0.0000
     0.0000   0.0000

          k =-0.0417-0.4583 0.0417 (   218 PWs)   bands (ev):

     6.8651   9.8763  10.8342  11.0530  11.1377  11.5699  30.6766  31.6282
    33.6020  34.1435

     occupation numbers 
     1.0000   1.0000   1.0000   1.0000   1.0000   1.0000   0.0000   0.0000
     0.0000   0.0000

          k =-0.1250-0.3750-0.0417 (   218 PWs)   bands (ev):

     6.2961  10.0599  10.7458  10.8766  11.1121  11.5226  30.3529  32.1230
    35.8966  36.9137

     occupation numbers 
     1.0000   1.0000   1.0000   1.0000   1.0000   1.0000   0.0000   0.0000
     0.0000   0.0000

          k =-0.0417-0.2917 0.0417 (   219 PWs)   bands (ev):

     5.5250  10.2114  10.7320  10.7360  11.0907  11.4288  33.1769  34.4754
    35.5818  37.3150

     occupation numbers 
     1.0000   1.0000   1.0000   1.0000   1.0000   1.0000   0.0000   0.0000
     0.0000   0.0000

          k =-0.1250 0.1250 0.1250 (   220 PWs)   bands (ev):

     5.0378  10.3880  10.5893  10.5893  11.2939  11.2939  32.8563  37.8523
    38.0793  38.0793

     occupation numbers 
     1.0000   1.0000   1.0000   1.0000   1.0000   1.0000   0.0000   0.0000
     0.0000   0.0000

          k =-0.2083 0.2083 0.0417 (   215 PWs)   bands (ev):

     5.5234  10.2851  10.6579  10.6728  11.1754  11.4063  31.4862  33.3948
    39.3127  40.4119

     occupation numbers 
     1.0000   1.0000   1.0000   1.0000   1.0000   1.0000   0.0000   0.0000
     0.0000   0.0000

          k =-0.2917 0.2917-0.0417 (   216 PWs)   bands (ev):

     6.4424  10.1479  10.6562  10.8156  11.0903  11.6280  28.7556  30.6838
    39.6839  40.6367

     occupation numbers 
     1.0000   1.0000   1.0000   1.0000   1.0000   1.0000   0.0000   0.0000
     0.0000   0.0000

          k =-0.3750 0.3750-0.1250 (   217 PWs)   bands (ev):

     7.6129  10.1301  10.5473  10.7799  11.2687  12.0088  24.6729  30.1372
    37.8497  38.0395

     occupation numbers 
     1.0000   1.0000   1.0000   1.0000   1.0000   1.0000   0.0000   0.0000
     0.0000   0.0000

          k =-0.4583 0.4583-0.2083 (   219 PWs)   bands (ev):

     8.5107  10.4031  10.5003  10.6833  11.5595  12.6651  21.0443  30.0794
    35.8738  36.4166

     occupation numbers 
     1.0000   1.0000   1.0000   1.0000   1.0000   1.0000   0.0000   0.0000
     0.0000   0.0000

          k = 0.4583-0.4583 0.7083 (   225 PWs)   bands (ev):

     8.7847  10.2998  10.6353  10.9507  11.7980  13.8456  18.2426  30.5127
    34.2292  35.4552

     occupation numbers 
     1.0000   1.0000   1.0000   1.0000   1.0000   0.1091   0.0000   0.0000
     0.0000   0.0000

          k = 0.3750-0.3750 0.6250 (   226 PWs)   bands (ev):

     8.7775  10.2763  10.6521  10.9009  11.9080  13.8050  18.2365  31.4401
    33.1515  34.9547

     occupation numbers 
     1.0000   1.0000   1.0000   1.0000   1.0000   0.1613   0.0000   0.0000
     0.0000   0.0000

          k = 0.2917-0.2917 0.5417 (   222 PWs)   bands (ev):

     8.4919  10.2880  10.4954  10.7207  11.8631  12.4743  21.0310  32.6598
    32.8064  34.9002

     occupation numbers 
     1.0000   1.0000   1.0000   1.0000   1.0000   1.0000   0.0000   0.0000
     0.0000   0.0000

          k = 0.2083-0.2083 0.4583 (   221 PWs)   bands (ev):

     7.6004  10.0511  10.5455  10.8009  11.6584  11.7018  24.6589  32.7407
    34.2597  35.5292

     occupation numbers 
     1.0000   1.0000   1.0000   1.0000   1.0000   1.0000   0.0000   0.0000
     0.0000   0.0000

          k = 0.1250-0.1250 0.3750 (   221 PWs)   bands (ev):

     6.4406  10.0743  10.7099  10.8223  11.2146  11.5255  28.7611  33.3588
    35.0591  37.3575

     occupation numbers 
     1.0000   1.0000   1.0000   1.0000   1.0000   1.0000   0.0000   0.0000
     0.0000   0.0000

          k =-0.1250 0.2917 0.1250 (   224 PWs)   bands (ev):

     5.8368  10.2139  10.6980  10.7180  11.1772  11.4313  30.0097  34.8394
    35.9801  39.9892

     occupation numbers 
     1.0000   1.0000   1.0000   1.0000   1.0000   1.0000   0.0000   0.0000
     0.0000   0.0000

          k =-0.2083 0.3750 0.0417 (   219 PWs)   bands (ev):

     6.5887  10.0688  10.6642  10.8833  11.1322  11.6257  28.8763  30.7667
    37.0662  38.1752

     occupation numbers 
     1.0000   1.0000   1.0000   1.0000   1.0000   1.0000   0.0000   0.0000
     0.0000   0.0000

          k =-0.2917 0.4583-0.0417 (   219 PWs)   bands (ev):

     7.6503   9.9597  10.5024  11.0151  11.1972  12.0464  26.3933  28.3538
    34.8504  39.1139

     occupation numbers 
     1.0000   1.0000   1.0000   1.0000   1.0000   1.0000   0.0000   0.0000
     0.0000   0.0000

          k =-0.3750 0.5417-0.1250 (   221 PWs)   bands (ev):

     8.6346  10.0565  10.3157  10.9230  11.5171  12.7949  22.6109  28.1170
    32.8157  38.2525

     occupation numbers 
     1.0000   1.0000   1.0000   1.0000   1.0000   1.0004   0.0000   0.0000
     0.0000   0.0000

          k = 0.5417-0.3750 0.7917 (   224 PWs)   bands (ev):

     9.0272  10.1237  10.4820  10.8456  11.7588  14.1583  19.3693  28.4079
    31.1961  37.4159

     occupation numbers 
     1.0000   1.0000   1.0000   1.0000   1.0000   0.0013   0.0000   0.0000
     0.0000   0.0000

          k = 0.4583-0.2917 0.7083 (   224 PWs)   bands (ev):

     9.0708  10.0722  10.6232  10.8235  11.8578  15.0801  17.9683  29.1842
    30.0670  36.8946

     occupation numbers 
[...]
    37.1302  37.4106

     occupation numbers 
     1.0000   1.0000   1.0000   1.0000   1.0000   1.0000   0.0000   0.0000
     0.0000   0.0000

          k =-0.2917 0.2917 0.1250 (   215 PWs)   bands (ev):

     6.5766  10.1823  10.6518  10.7366  11.2093  11.5963  27.1422  32.5612
    38.6579  39.6253

     occupation numbers 
     1.0000   1.0000   1.0000   1.0000   1.0000   1.0000   0.0000   0.0000
     0.0000   0.0000

          k =-0.3750 0.3750 0.0417 (   216 PWs)   bands (ev):

     7.5296  10.0426  10.5406  10.9266  11.0944  12.0515  26.2708  28.2577
    38.0096  38.1482

     occupation numbers 
     1.0000   1.0000   1.0000   1.0000   1.0000   1.0000   0.0000   0.0000
     0.0000   0.0000

          k =-0.4583 0.4583-0.0417 (   218 PWs)   bands (ev):

     8.5733  10.0125  10.3405  10.9524  11.2540  12.7788  24.0356  26.1650
    35.5371  36.5973

     occupation numbers 
     1.0000   1.0000   1.0000   1.0000   1.0000   1.0003   0.0000   0.0000
     0.0000   0.0000

          k = 0.4583-0.4583 0.8750 (   223 PWs)   bands (ev):

     9.1298  10.1299  10.2920  10.9006  11.5583  14.0216  20.5985  26.2364
    33.4731  35.3411

     occupation numbers 
     1.0000   1.0000   1.0000   1.0000   1.0000   0.0124   0.0000   0.0000
     0.0000   0.0000

          k = 0.3750-0.3750 0.7917 (   221 PWs)   bands (ev):

     9.1938   9.9865  10.5371  10.9028  11.8071  15.5744  18.0966  26.8624
    31.9125  34.5061

     occupation numbers 
     1.0000   1.0000   1.0000   1.0000   1.0000   0.0000   0.0000   0.0000
     0.0000   0.0000

          k = 0.2917-0.2917 0.7083 (   224 PWs)   bands (ev):

     9.0870   9.9058  10.4999  10.9569  11.9263  14.4261  19.5719  27.9840
    30.9248  34.0662

     occupation numbers 
     1.0000   1.0000   1.0000   1.0000   1.0000   0.0000   0.0000   0.0000
     0.0000   0.0000

          k = 0.2083-0.2083 0.6250 (   220 PWs)   bands (ev):

     8.7031   9.7753  10.4804  11.0387  11.8859  12.7443  22.8365  29.5600
    30.5531  33.9630

     occupation numbers 
     1.0000   1.0000   1.0000   1.0000   1.0000   1.0002   0.0000   0.0000
     0.0000   0.0000

          k =-0.2083 0.3750 0.2083 (   219 PWs)   bands (ev):

     6.9794  10.1572  10.6266  10.7233  11.4103  11.5813  25.7675  34.0694
    35.4111  37.7688

     occupation numbers 
     1.0000   1.0000   1.0000   1.0000   1.0000   1.0000   0.0000   0.0000
     0.0000   0.0000

          k =-0.2917 0.4583 0.1250 (   220 PWs)   bands (ev):

     7.7345  10.0322  10.5051  10.8595  11.3953  12.0071  24.7961  30.2133
    34.9255  37.6257

     occupation numbers 
     1.0000   1.0000   1.0000   1.0000   1.0000   1.0000   0.0000   0.0000
     0.0000   0.0000

          k =-0.3750 0.5417 0.0417 (   219 PWs)   bands (ev):

     8.6544   9.9235  10.2855  11.0808  11.3421  12.8129  24.1636  26.2659
    32.6947  39.1388

     occupation numbers 
     1.0000   1.0000   1.0000   1.0000   1.0000   1.0006   0.0000   0.0000
     0.0000   0.0000

          k = 0.5417-0.3750 0.9583 (   225 PWs)   bands (ev):

     9.3323   9.9753  10.0467  11.1222  11.5214  14.1223  22.1693  24.5524
    30.7758  37.9747

     occupation numbers 
     1.0000   1.0000   1.0000   1.0000   1.0000   0.0025   0.0000   0.0000
     0.0000   0.0000

          k = 0.4583-0.2917 0.8750 (   225 PWs)   bands (ev):

     9.4680   9.8103  10.2925  11.0924  11.7559  16.0117  19.1455  24.9255
    29.2624  36.8688

     occupation numbers 
     1.0000   1.0000   1.0000   1.0000   1.0000   0.0000   0.0000   0.0000
     0.0000   0.0000

          k = 0.3750-0.2083 0.7917 (   224 PWs)   bands (ev):

     9.3455   9.7391  10.4043  11.1489  11.8769  15.9015  19.1874  25.8753
    28.2163  36.1853

     occupation numbers 
     1.0000   1.0000   1.0000   1.0000   1.0000   0.0000   0.0000   0.0000
     0.0000   0.0000

          k = 0.2917-0.1250 0.7083 (   221 PWs)   bands (ev):

     9.0875   9.6575  10.4464  11.2657  11.8358  13.8647  22.2723  27.2523
    27.7472  35.8846

     occupation numbers 
     1.0000   1.0000   1.0000   1.0000   1.0000   0.0895   0.0000   0.0000
     0.0000   0.0000

          k =-0.2083 0.5417 0.2083 (   221 PWs)   bands (ev):

     8.2117   9.9217  10.4737  10.9078  11.8062  12.0900  23.6812  31.5644
    32.0416  34.4941

     occupation numbers 
     1.0000   1.0000   1.0000   1.0000   1.0000   1.0000   0.0000   0.0000
     0.0000   0.0000

          k =-0.2917 0.6250 0.1250 (   222 PWs)   bands (ev):

     8.8135   9.7909  10.3676  11.1181  11.7327  12.9760  22.9760  28.3571
    29.7521  36.3301

     occupation numbers 
     1.0000   1.0000   1.0000   1.0000   1.0000   1.0071   0.0000   0.0000
     0.0000   0.0000

          k = 0.6250-0.2917 1.0417 (   222 PWs)   bands (ev):

     9.3335   9.7531  10.1575  11.3299  11.6844  14.4000  22.5821  24.8488
    27.7242  39.4124

     occupation numbers 
     1.0000   1.0000   1.0000   1.0000   1.0000   0.0000   0.0000   0.0000
     0.0000   0.0000

          k = 0.5417-0.2083 0.9583 (   218 PWs)   bands (ev):

     9.5459   9.8459  10.0268  11.2834  11.8341  16.3930  20.8548  23.5297
    26.1232  40.1851

     occupation numbers 
     1.0000   1.0000   1.0000   1.0000   1.0000   0.0000   0.0000   0.0000
     0.0000   0.0000

          k = 0.4583-0.1250 0.8750 (   217 PWs)   bands (ev):

     9.5225   9.7574  10.1728  11.2673  11.9155  17.8342  19.1822  24.1775
    24.9966  39.5858

     occupation numbers 
     1.0000   1.0000   1.0000   1.0000   1.0000   0.0000   0.0000   0.0000
     0.0000   0.0000

          k = 0.3750-0.0417 0.7917 (   219 PWs)   bands (ev):

     9.3683   9.6803  10.2769  11.3940  11.8375  15.5703  22.0139  24.3511
    25.4988  39.1669

     occupation numbers 
     1.0000   1.0000   1.0000   1.0000   1.0000   0.0000   0.0000   0.0000
     0.0000   0.0000

          k =-0.2083 0.7083 0.2083 (   221 PWs)   bands (ev):

     8.9897   9.6286  10.5974  11.1846  11.9348  13.6533  22.1309  27.1765
    29.7203  33.5964

     occupation numbers 
     1.0000   1.0000   1.0000   1.0000   1.0000   0.4876   0.0000   0.0000
     0.0000   0.0000

          k = 0.7083-0.2083 1.1250 (   222 PWs)   bands (ev):

     9.1773   9.5452  10.6045  11.3935  11.8993  15.0027  21.7169  25.0848
    27.1470  35.5602

     occupation numbers 
     1.0000   1.0000   1.0000   1.0000   1.0000   0.0000   0.0000   0.0000
     0.0000   0.0000

          k = 0.6250-0.1250 1.0417 (   216 PWs)   bands (ev):

     9.3219   9.6329  10.4221  11.4110  11.9572  16.8886  21.6121  23.4031
    24.1217  38.9566

     occupation numbers 
     1.0000   1.0000   1.0000   1.0000   1.0000   0.0000   0.0000   0.0000
     0.0000   0.0000

          k = 0.5417-0.0417 0.9583 (   217 PWs)   bands (ev):

     9.4054   9.8571  10.1620  11.3062  12.0237  19.0910  20.2184  22.3539
    23.2084  41.2164

     occupation numbers 
     1.0000   1.0000   1.0000   1.0000   1.0000   0.0000   0.0000   0.0000
     0.0000   0.0000

          k = 0.4583 0.0417 0.8750 (   217 PWs)   bands (ev):

     9.4601   9.8590  10.1025  11.3046  11.9555  17.7879  20.4457  23.1987
    24.1170  41.0387

     occupation numbers 
     1.0000   1.0000   1.0000   1.0000   1.0000   0.0000   0.0000   0.0000
     0.0000   0.0000

          k =-0.2083-1.1250 0.2083 (   223 PWs)   bands (ev):

     9.1117   9.4222  10.9295  11.4661  11.9349  16.0598  21.1600  23.0367
    28.6448  33.1825

     occupation numbers 
     1.0000   1.0000   1.0000   1.0000   1.0000   0.0000   0.0000   0.0000
     0.0000   0.0000

          k =-0.2917-1.0417 0.1250 (   221 PWs)   bands (ev):

     9.1584   9.4379  10.8540  11.5149  11.9596  17.3746  20.9944  21.8243
    26.5806  35.2453

     occupation numbers 
     1.0000   1.0000   1.0000   1.0000   1.0000   0.0000   0.0000   0.0000
     0.0000   0.0000

          k =-0.3750-0.9583 0.0417 (   217 PWs)   bands (ev):

     9.2839   9.6091  10.5139  11.4064  12.0237  18.0585  21.3575  21.9818
    23.9238  38.8436

     occupation numbers 
     1.0000   1.0000   1.0000   1.0000   1.0000   0.0000   0.0000   0.0000
     0.0000   0.0000

          k =-0.2083-0.9583 0.2083 (   224 PWs)   bands (ev):

     9.1024   9.3828  11.0167  11.5541  11.9090  17.1333  20.8332  21.7540
    28.4244  33.1048

     occupation numbers 
     1.0000   1.0000   1.0000   1.0000   1.0000   0.0000   0.0000   0.0000
     0.0000   0.0000

          k =-0.2917-0.8750 0.1250 (   220 PWs)   bands (ev):

     9.1763   9.4720  10.7600  11.4783  11.9384  16.2786  21.3112  23.1393
    26.7703  35.3492

     occupation numbers 
     1.0000   1.0000   1.0000   1.0000   1.0000   0.0000   0.0000   0.0000
     0.0000   0.0000

          k =-0.2083-0.7917 0.2083 (   221 PWs)   bands (ev):

     9.0966   9.5051  10.7738  11.3330  11.9498  14.7933  21.5725  24.9672
    29.0800  33.3428

     occupation numbers 
     1.0000   1.0000   1.0000   1.0000   1.0000   0.0000   0.0000   0.0000
     0.0000   0.0000

          k =-0.2917 0.2917 0.2917 (   217 PWs)   bands (ev):

     7.1981  10.3426  10.6209  10.6209  11.5125  11.5125  24.2733  36.4824
    36.4824  36.7617

     occupation numbers 
     1.0000   1.0000   1.0000   1.0000   1.0000   1.0000   0.0000   0.0000
     0.0000   0.0000

          k =-0.3750 0.3750 0.2083 (   217 PWs)   bands (ev):

     7.7638  10.3214  10.5551  10.6607  11.4411  11.9259  23.1836  32.1754
    37.3438  37.9105

     occupation numbers 
     1.0000   1.0000   1.0000   1.0000   1.0000   1.0000   0.0000   0.0000
     0.0000   0.0000

          k =-0.4583 0.4583 0.1250 (   221 PWs)   bands (ev):

     8.5477  10.1785  10.3649  10.8189  11.4002  12.7421  22.4896  28.0189
    35.6558  36.5359

     occupation numbers 
     1.0000   1.0000   1.0000   1.0000   1.0000   1.0001   0.0000   0.0000
     0.0000   0.0000

          k = 0.4583-0.4583 1.0417 (   222 PWs)   bands (ev):

     9.2716  10.0799  10.0922  11.0174  11.4460  14.0270  22.0300  24.4528
    33.3182  35.3218

     occupation numbers 
     1.0000   1.0000   1.0000   1.0000   1.0000   0.0114   0.0000   0.0000
     0.0000   0.0000

          k = 0.3750-0.3750 0.9583 (   225 PWs)   bands (ev):

     9.5134   9.8106  10.2646  11.1510  11.6286  15.8760  20.2278  23.1522
    31.3730  34.3403

     occupation numbers 
     1.0000   1.0000   1.0000   1.0000   1.0000   0.0000   0.0000   0.0000
     0.0000   0.0000

          k = 0.2917-0.2917 0.8750 (   223 PWs)   bands (ev):

     9.3500   9.6334  10.5516  11.2417  11.8420  17.0541  18.7396  23.7522
    29.9305  33.6906

     occupation numbers 
     1.0000   1.0000   1.0000   1.0000   1.0000   0.0000   0.0000   0.0000
     0.0000   0.0000

          k =-0.2917 0.4583 0.2917 (   220 PWs)   bands (ev):

     8.0781  10.4300  10.5102  10.6491  11.7740  11.8871  21.9715  33.7821
    34.8570  35.9316

     occupation numbers 
     1.0000   1.0000   1.0000   1.0000   1.0000   1.0000   0.0000   0.0000
     0.0000   0.0000

          k =-0.3750 0.5417 0.2083 (   222 PWs)   bands (ev):

     8.6049  10.2701  10.4054  10.7759  11.6937  12.7665  21.1602  30.1558
    33.0580  37.0990

     occupation numbers 
     1.0000   1.0000   1.0000   1.0000   1.0000   1.0002   0.0000   0.0000
     0.0000   0.0000

          k = 0.5417-0.3750 1.1250 (   224 PWs)   bands (ev):

     9.1966  10.0349  10.2200  10.9943  11.6365  14.1420  20.7197  26.3455
    30.9151  37.8059

     occupation numbers 
     1.0000   1.0000   1.0000   1.0000   1.0000   0.0018   0.0000   0.0000
     0.0000   0.0000

          k = 0.4583-0.2917 1.0417 (   223 PWs)   bands (ev):

     9.6103   9.7507  10.1641  11.1883  11.6956  16.0140  20.3861  23.2453
    29.1068  36.8462

     occupation numbers 
     1.0000   1.0000   1.0000   1.0000   1.0000   0.0000   0.0000   0.0000
     0.0000   0.0000

          k = 0.3750-0.2083 0.9583 (   221 PWs)   bands (ev):

     9.4399   9.6132  10.4463  11.3243  11.8461  18.2627  18.8912  22.3329
    27.6986  35.9411

     occupation numbers 
     1.0000   1.0000   1.0000   1.0000   1.0000   0.0000   0.0000   0.0000
     0.0000   0.0000

          k =-0.2917 0.6250 0.2917 (   225 PWs)   bands (ev):

     8.8327  10.0966  10.4921  10.8259  11.9150  13.3332  20.2299  30.3613
    31.7041  34.4043

     occupation numbers 
     1.0000   1.0000   1.0000   1.0000   1.0000   1.0797   0.0000   0.0000
     0.0000   0.0000

          k = 0.6250-0.2917 1.2083 (   225 PWs)   bands (ev):

     9.1807   9.8963  10.3918  11.0190  11.8636  14.6383  19.6952  28.0773
    28.7584  36.4282

     occupation numbers 
     1.0000   1.0000   1.0000   1.0000   1.0000   0.0000   0.0000   0.0000
     0.0000   0.0000

          k = 0.5417-0.2083 1.1250 (   221 PWs)   bands (ev):

     9.5551   9.7255  10.1851  11.2078  11.8462  16.4638  19.5161  25.2498
    26.2816  39.2888

     occupation numbers 
     1.0000   1.0000   1.0000   1.0000   1.0000   0.0000   0.0000   0.0000
     0.0000   0.0000

          k = 0.4583-0.1250 1.0417 (   219 PWs)   bands (ev):

     9.4693   9.8084  10.1683  11.2927  11.9549  18.7239  19.3944  22.5869
    24.8226  39.6627

     occupation numbers 
     1.0000   1.0000   1.0000   1.0000   1.0000   0.0000   0.0000   0.0000
     0.0000   0.0000

          k =-0.2917-1.2083 0.2917 (   223 PWs)   bands (ev):

     9.2567   9.7442  10.5222  11.1018  11.8986  15.6995  19.0669  25.7551
    30.3310  33.8351

     occupation numbers 
     1.0000   1.0000   1.0000   1.0000   1.0000   0.0000   0.0000   0.0000
     0.0000   0.0000

          k =-0.3750-1.1250 0.2083 (   222 PWs)   bands (ev):

     9.4274   9.6413  10.4275  11.2587  11.8635  17.2567  18.8611  23.8627
    27.8713  36.0224

     occupation numbers 
     1.0000   1.0000   1.0000   1.0000   1.0000   0.0000   0.0000   0.0000
     0.0000   0.0000

          k =-0.2917-1.0417 0.2917 (   223 PWs)   bands (ev):

     9.3827   9.5840  10.5725  11.3408  11.7862  18.0869  18.7203  22.2496
    29.7288  33.6212

     occupation numbers 
     1.0000   1.0000   1.0000   1.0000   1.0000   0.0000   0.0000   0.0000
     0.0000   0.0000

          k =-0.3750 0.3750 0.3750 (   226 PWs)   bands (ev):

     8.1625  10.5321  10.5321  11.0567  11.7340  11.7340  20.6785  36.1335
    36.1335  36.1434

     occupation numbers 
     1.0000   1.0000   1.0000   1.0000   1.0000   1.0000   0.0000   0.0000
     0.0000   0.0000

          k =-0.4583 0.4583 0.2917 (   224 PWs)   bands (ev):

     8.4800  10.4434  10.5741  10.9561  11.7006  12.5428  19.7894  32.2442
    36.1293  36.2496

     occupation numbers 
     1.0000   1.0000   1.0000   1.0000   1.0000   1.0000   0.0000   0.0000
     0.0000   0.0000

          k = 0.4583-0.4583 1.2083 (   222 PWs)   bands (ev):

     8.9508  10.2090  10.5967  10.7605  11.6886  13.9835  19.2655  28.3039
    33.7797  35.3834

     occupation numbers 
     1.0000   1.0000   1.0000   1.0000   1.0000   0.0212   0.0000   0.0000
     0.0000   0.0000

          k = 0.3750-0.3750 1.1250 (   225 PWs)   bands (ev):

     9.3835   9.8728  10.3768  11.0441  11.7119  15.8455  19.0240  24.8127
    31.5533  34.3937

     occupation numbers 
     1.0000   1.0000   1.0000   1.0000   1.0000   0.0000   0.0000   0.0000
     0.0000   0.0000

          k =-0.3750 0.5417 0.3750 (   225 PWs)   bands (ev):

     8.5722  10.3981  10.5715  11.0899  11.8937  12.8358  18.8566  33.7979
    34.0162  35.3472

     occupation numbers 
     1.0000   1.0000   1.0000   1.0000   1.0000   1.0008   0.0000   0.0000
     0.0000   0.0000

          k = 0.5417-0.3750 1.2917 (   224 PWs)   bands (ev):

     8.8701  10.2245  10.6944  10.7988  11.8472  14.1110  18.3203  30.5821
    31.6386  36.7994

     occupation numbers 
     1.0000   1.0000   1.0000   1.0000   1.0000   0.0030   0.0000   0.0000
     0.0000   0.0000

          k = 0.4583-0.2917 1.2083 (   224 PWs)   bands (ev):

     9.2743   9.9247  10.4568  10.9576  11.8215  15.7985  18.1760  26.9790
    29.5752  36.8978

     occupation numbers 
     1.0000   1.0000   1.0000   1.0000   1.0000   0.0000   0.0000   0.0000
     0.0000   0.0000

          k =-0.3750-1.2917 0.3750 (   221 PWs)   bands (ev):

     8.9863  10.1305  10.7139  10.7660  11.8773  14.8120  17.9002  29.0927
    32.4472  34.6877

     occupation numbers 
     1.0000   1.0000   1.0000   1.0000   1.0000   0.0000   0.0000   0.0000
     0.0000   0.0000

          k =-0.4583 0.4583 0.4583 (   225 PWs)   bands (ev):

     8.4918  10.4708  10.4708  11.8772  11.8772  12.4190  18.0202  35.7803
    36.0120  36.0120

     occupation numbers 
     1.0000   1.0000   1.0000   1.0000   1.0000   1.0000   0.0000   0.0000
     0.0000   0.0000

          k = 0.4583-0.4583 1.3750 (   225 PWs)   bands (ev):

     8.6489  10.3822  10.5404  11.3217  11.8705  13.5143  17.6739  32.7940
    34.8009  35.5655

     occupation numbers 
     1.0000   1.0000   1.0000   1.0000   1.0000   0.8551   0.0000   0.0000
     0.0000   0.0000

     the Fermi energy is    13.6866 ev

!    total energy              =     -87.84348568 Ry
     Harris-Foulkes estimate   =     -87.84348568 Ry
     estimated scf accuracy    <       0.00000001 Ry

     The total energy is the sum of the following terms:

     one-electron contribution =     -12.12470730 Ry
     hartree contribution      =      19.52680265 Ry
     xc contribution           =     -14.03350806 Ry
     ewald contribution        =     -81.21214902 Ry
     smearing contrib. (-TS)   =       0.00007605 Ry

     convergence has been achieved in   6 iterations

     Writing output data file Cu_exc2.save

     init_run     :      2.39s CPU      2.42s WALL (       1 calls)
     electrons    :     47.88s CPU     54.37s WALL (       1 calls)

     Called by init_run:
     wfcinit      :      1.50s CPU      1.53s WALL (       1 calls)
     potinit      :      0.00s CPU      0.00s WALL (       1 calls)

     Called by electrons:
     c_bands      :     39.82s CPU     45.14s WALL (       6 calls)
     sum_band     :      7.84s CPU      8.97s WALL (       6 calls)
     v_of_rho     :      0.03s CPU      0.04s WALL (       7 calls)
     v_h          :      0.01s CPU      0.00s WALL (       7 calls)
     v_xc         :      0.02s CPU      0.04s WALL (       7 calls)
     newd         :      0.19s CPU      0.21s WALL (       7 calls)
     mix_rho      :      0.01s CPU      0.01s WALL (       6 calls)

     Called by c_bands:
     init_us_2    :      1.01s CPU      1.17s WALL (    2366 calls)
     cegterg      :     38.66s CPU     43.78s WALL (    1092 calls)

     Called by sum_band:
     sum_band:bec :      0.05s CPU      0.04s WALL (    1092 calls)
     addusdens    :      0.16s CPU      0.17s WALL (       6 calls)

     Called by *egterg:
     h_psi        :     32.31s CPU     36.45s WALL (    3403 calls)
     s_psi        :      0.84s CPU      0.94s WALL (    3403 calls)
     g_psi        :      0.08s CPU      0.11s WALL (    2129 calls)
     cdiaghg      :      2.71s CPU      2.84s WALL (    3221 calls)
     cegterg:over :      1.60s CPU      1.89s WALL (    2129 calls)
     cegterg:upda :      0.84s CPU      1.04s WALL (    2129 calls)
     cegterg:last :      0.65s CPU      0.75s WALL (    1092 calls)

     Called by h_psi:
     h_psi:vloc   :     30.40s CPU     34.24s WALL (    3403 calls)
     h_psi:vnl    :      1.83s CPU      2.12s WALL (    3403 calls)
     add_vuspsi   :      0.80s CPU      1.02s WALL (    3403 calls)

     General routines
     calbec       :      1.42s CPU      1.53s WALL (    4495 calls)
     fft          :      0.04s CPU      0.03s WALL (      40 calls)
     fftw         :     34.31s CPU     38.85s WALL (   67544 calls)
     davcio       :      0.00s CPU      0.02s WALL (     182 calls)

     Parallel routines
     fft_scatter  :      1.04s CPU      1.41s WALL (   67584 calls)

     PWSCF        :    52.10s CPU        59.06s WALL


   This run was terminated on:  21:17:34  18Feb2020            

=------------------------------------------------------------------------------=
   JOB DONE.
=------------------------------------------------------------------------------=
