
     Program PWSCF v.5.1 starts on 18Feb2020 at 20:31:28 

     This program is part of the open-source Quantum ESPRESSO suite
     for quantum simulation of materials; please cite
         "P. Giannozzi et al., J. Phys.:Condens. Matter 21 395502 (2009);
          URL http://www.quantum-espresso.org", 
     in publications or presentations arising from this work. More details at
     http://www.quantum-espresso.org/quote

     Parallel version (MPI), running on     1 processors
     Waiting for input...
     Reading input from standard input

     Current dimensions of program PWSCF are:
     Max number of different atomic species (ntypx) = 10
     Max number of k-points (npk) =  40000
     Max angular momentum in pseudopotentials (lmaxx) =  3

     Subspace diagonalization in iterative solution of the eigenvalue problem:
     a serial algorithm will be used


     G-vector sticks info
     --------------------
     sticks:   dense  smooth     PW     G-vecs:    dense   smooth      PW
     Sum          97      97     43                  645      645     181



     bravais-lattice index     =            2
     lattice parameter (alat)  =       5.4168  a.u.
     unit-cell volume          =      39.7346 (a.u.)^3
     number of atoms/cell      =            1
     number of atomic types    =            1
     number of electrons       =        16.00
     number of Kohn-Sham states=           12
     kinetic-energy cutoff     =      25.0000  Ry
     charge density cutoff     =     100.0000  Ry
     convergence threshold     =      1.0E-06
     mixing beta               =       0.7000
     number of iterations used =            8  plain     mixing
     Exchange-correlation      = PBESOL ( 1  4 10  8 0)

     celldm(1)=   5.416800  celldm(2)=   0.000000  celldm(3)=   0.000000
     celldm(4)=   0.000000  celldm(5)=   0.000000  celldm(6)=   0.000000

     crystal axes: (cart. coord. in units of alat)
               a(1) = (  -0.500000   0.000000   0.500000 )  
               a(2) = (   0.000000   0.500000   0.500000 )  
               a(3) = (  -0.500000   0.500000   0.000000 )  

     reciprocal axes: (cart. coord. in units 2 pi/alat)
               b(1) = ( -1.000000 -1.000000  1.000000 )  
               b(2) = (  1.000000  1.000000  1.000000 )  
               b(3) = ( -1.000000  1.000000 -1.000000 )  


     PseudoPot. # 1 for Fe read from file:
     ../pseudo/Fe.pbesol-spn-rrkjus_psl.1.0.0.UPF
     MD5 check sum: 484df5943d2d2fc40c67f98a6337a9e2
     Pseudo is Ultrasoft + core correction, Zval = 16.0
     Generated using "atomic" code by A. Dal Corso  v.6.3
     Using radial grid of 1191 points,  6 beta functions with: 
                l(1) =   0
                l(2) =   0
                l(3) =   1
                l(4) =   1
                l(5) =   2
                l(6) =   2
     Q(r) pseudized with 0 coefficients 


     atomic species   valence    mass     pseudopotential
        Fe            16.00    55.84500     Fe( 1.00)

     48 Sym. Ops., with inversion, found


                                    s                        frac. trans.

      isym =  1     identity                                     

 cryst.   s( 1) = (     1          0          0      )
                  (     0          1          0      )
                  (     0          0          1      )

 cart.    s( 1) = (  1.0000000  0.0000000  0.0000000 )
                  (  0.0000000  1.0000000  0.0000000 )
                  (  0.0000000  0.0000000  1.0000000 )


      isym =  2     180 deg rotation - cart. axis [0,0,1]        

 cryst.   s( 2) = (     0          1         -1      )
                  (     1          0         -1      )
                  (     0          0         -1      )

 cart.    s( 2) = ( -1.0000000  0.0000000  0.0000000 )
                  (  0.0000000 -1.0000000  0.0000000 )
                  (  0.0000000  0.0000000  1.0000000 )


      isym =  3     180 deg rotation - cart. axis [0,1,0]        

 cryst.   s( 3) = (    -1          0          0      )
                  (    -1          0          1      )
                  (    -1          1          0      )

 cart.    s( 3) = ( -1.0000000  0.0000000  0.0000000 )
                  (  0.0000000  1.0000000  0.0000000 )
                  (  0.0000000  0.0000000 -1.0000000 )


      isym =  4     180 deg rotation - cart. axis [1,0,0]        

 cryst.   s( 4) = (     0         -1          1      )
                  (     0         -1          0      )
                  (     1         -1          0      )

 cart.    s( 4) = (  1.0000000  0.0000000  0.0000000 )
                  (  0.0000000 -1.0000000  0.0000000 )
                  (  0.0000000  0.0000000 -1.0000000 )


      isym =  5     180 deg rotation - cart. axis [1,1,0]        

 cryst.   s( 5) = (     0         -1          0      )
                  (    -1          0          0      )
                  (     0          0         -1      )

 cart.    s( 5) = (  0.0000000  1.0000000  0.0000000 )
                  (  1.0000000  0.0000000  0.0000000 )
                  (  0.0000000  0.0000000 -1.0000000 )


      isym =  6     180 deg rotation - cart. axis [1,-1,0]       

 cryst.   s( 6) = (    -1          0          1      )
                  (     0         -1          1      )
                  (     0          0          1      )

 cart.    s( 6) = (  0.0000000 -1.0000000  0.0000000 )
                  ( -1.0000000  0.0000000  0.0000000 )
                  (  0.0000000  0.0000000 -1.0000000 )


      isym =  7      90 deg rotation - cart. axis [0,0,-1]       

 cryst.   s( 7) = (     0          1          0      )
                  (     0          1         -1      )
                  (    -1          1          0      )

 cart.    s( 7) = (  0.0000000  1.0000000  0.0000000 )
                  ( -1.0000000  0.0000000  0.0000000 )
                  (  0.0000000  0.0000000  1.0000000 )


      isym =  8      90 deg rotation - cart. axis [0,0,1]        

 cryst.   s( 8) = (     1          0         -1      )
                  (     1          0          0      )
                  (     1         -1          0      )

 cart.    s( 8) = (  0.0000000 -1.0000000  0.0000000 )
                  (  1.0000000  0.0000000  0.0000000 )
                  (  0.0000000  0.0000000  1.0000000 )


      isym =  9     180 deg rotation - cart. axis [1,0,1]        

 cryst.   s( 9) = (    -1          0          0      )
                  (     0          0         -1      )
                  (     0         -1          0      )

 cart.    s( 9) = (  0.0000000  0.0000000  1.0000000 )
                  (  0.0000000 -1.0000000  0.0000000 )
                  (  1.0000000  0.0000000  0.0000000 )


      isym = 10     180 deg rotation - cart. axis [-1,0,1]       

 cryst.   s(10) = (     1          0          0      )
                  (     1         -1          0      )
                  (     1          0         -1      )

 cart.    s(10) = (  0.0000000  0.0000000 -1.0000000 )
                  (  0.0000000 -1.0000000  0.0000000 )
                  ( -1.0000000  0.0000000  0.0000000 )


      isym = 11      90 deg rotation - cart. axis [0,1,0]        

 cryst.   s(11) = (     0          1         -1      )
                  (    -1          1          0      )
                  (     0          1          0      )

 cart.    s(11) = (  0.0000000  0.0000000  1.0000000 )
                  (  0.0000000  1.0000000  0.0000000 )
                  ( -1.0000000  0.0000000  0.0000000 )


      isym = 12      90 deg rotation - cart. axis [0,-1,0]       

 cryst.   s(12) = (     0         -1          1      )
                  (     0          0          1      )
                  (    -1          0          1      )

 cart.    s(12) = (  0.0000000  0.0000000 -1.0000000 )
                  (  0.0000000  1.0000000  0.0000000 )
                  (  1.0000000  0.0000000  0.0000000 )


      isym = 13     180 deg rotation - cart. axis [0,1,1]        

 cryst.   s(13) = (    -1          1          0      )
                  (     0          1          0      )
                  (     0          1         -1      )

 cart.    s(13) = ( -1.0000000  0.0000000  0.0000000 )
                  (  0.0000000  0.0000000  1.0000000 )
                  (  0.0000000  1.0000000  0.0000000 )


      isym = 14     180 deg rotation - cart. axis [0,1,-1]       

 cryst.   s(14) = (     0          0         -1      )
                  (     0         -1          0      )
                  (    -1          0          0      )

 cart.    s(14) = ( -1.0000000  0.0000000  0.0000000 )
                  (  0.0000000  0.0000000 -1.0000000 )
                  (  0.0000000 -1.0000000  0.0000000 )


      isym = 15      90 deg rotation - cart. axis [-1,0,0]       

 cryst.   s(15) = (     0          0          1      )
                  (    -1          0          1      )
                  (     0         -1          1      )

 cart.    s(15) = (  1.0000000  0.0000000  0.0000000 )
                  (  0.0000000  0.0000000  1.0000000 )
                  (  0.0000000 -1.0000000  0.0000000 )


      isym = 16      90 deg rotation - cart. axis [1,0,0]        

 cryst.   s(16) = (     1         -1          0      )
                  (     1          0         -1      )
                  (     1          0          0      )

 cart.    s(16) = (  1.0000000  0.0000000  0.0000000 )
                  (  0.0000000  0.0000000 -1.0000000 )
                  (  0.0000000  1.0000000  0.0000000 )


      isym = 17     120 deg rotation - cart. axis [-1,-1,-1]     

 cryst.   s(17) = (    -1          0          1      )
                  (    -1          1          0      )
                  (    -1          0          0      )

 cart.    s(17) = (  0.0000000  1.0000000  0.0000000 )
                  (  0.0000000  0.0000000  1.0000000 )
                  (  1.0000000  0.0000000  0.0000000 )


      isym = 18     120 deg rotation - cart. axis [-1,1,1]       

 cryst.   s(18) = (     0          1          0      )
                  (     0          0          1      )
                  (     1          0          0      )

 cart.    s(18) = (  0.0000000 -1.0000000  0.0000000 )
                  (  0.0000000  0.0000000  1.0000000 )
                  ( -1.0000000  0.0000000  0.0000000 )


      isym = 19     120 deg rotation - cart. axis [1,1,-1]       

 cryst.   s(19) = (     1          0         -1      )
                  (     0          0         -1      )
                  (     0          1         -1      )

 cart.    s(19) = (  0.0000000  1.0000000  0.0000000 )
                  (  0.0000000  0.0000000 -1.0000000 )
                  ( -1.0000000  0.0000000  0.0000000 )


      isym = 20     120 deg rotation - cart. axis [1,-1,1]       

 cryst.   s(20) = (     0         -1          0      )
                  (     1         -1          0      )
                  (     0         -1          1      )

 cart.    s(20) = (  0.0000000 -1.0000000  0.0000000 )
                  (  0.0000000  0.0000000 -1.0000000 )
                  (  1.0000000  0.0000000  0.0000000 )


      isym = 21     120 deg rotation - cart. axis [1,1,1]        

 cryst.   s(21) = (     0          0         -1      )
                  (     0          1         -1      )
                  (     1          0         -1      )

 cart.    s(21) = (  0.0000000  0.0000000  1.0000000 )
                  (  1.0000000  0.0000000  0.0000000 )
                  (  0.0000000  1.0000000  0.0000000 )


      isym = 22     120 deg rotation - cart. axis [-1,1,-1]      

 cryst.   s(22) = (    -1          1          0      )
                  (    -1          0          0      )
                  (    -1          0          1      )

 cart.    s(22) = (  0.0000000  0.0000000  1.0000000 )
                  ( -1.0000000  0.0000000  0.0000000 )
                  (  0.0000000 -1.0000000  0.0000000 )


      isym = 23     120 deg rotation - cart. axis [1,-1,-1]      

 cryst.   s(23) = (     0          0          1      )
                  (     1          0          0      )
                  (     0          1          0      )

 cart.    s(23) = (  0.0000000  0.0000000 -1.0000000 )
                  ( -1.0000000  0.0000000  0.0000000 )
                  (  0.0000000  1.0000000  0.0000000 )


      isym = 24     120 deg rotation - cart. axis [-1,-1,1]      

 cryst.   s(24) = (     1         -1          0      )
                  (     0         -1          1      )
                  (     0         -1          0      )

 cart.    s(24) = (  0.0000000  0.0000000 -1.0000000 )
                  (  1.0000000  0.0000000  0.0000000 )
                  (  0.0000000 -1.0000000  0.0000000 )


      isym = 25     inversion                                    

 cryst.   s(25) = (    -1          0          0      )
                  (     0         -1          0      )
                  (     0          0         -1      )

 cart.    s(25) = ( -1.0000000  0.0000000  0.0000000 )
                  (  0.0000000 -1.0000000  0.0000000 )
                  (  0.0000000  0.0000000 -1.0000000 )


      isym = 26     inv. 180 deg rotation - cart. axis [0,0,1]   

 cryst.   s(26) = (     0         -1          1      )
                  (    -1          0          1      )
                  (     0          0          1      )

 cart.    s(26) = (  1.0000000  0.0000000  0.0000000 )
                  (  0.0000000  1.0000000  0.0000000 )
                  (  0.0000000  0.0000000 -1.0000000 )


      isym = 27     inv. 180 deg rotation - cart. axis [0,1,0]   

 cryst.   s(27) = (     1          0          0      )
                  (     1          0         -1      )
                  (     1         -1          0      )

 cart.    s(27) = (  1.0000000  0.0000000  0.0000000 )
                  (  0.0000000 -1.0000000  0.0000000 )
                  (  0.0000000  0.0000000  1.0000000 )


      isym = 28     inv. 180 deg rotation - cart. axis [1,0,0]   

 cryst.   s(28) = (     0          1         -1      )
                  (     0          1          0      )
                  (    -1          1          0      )

 cart.    s(28) = ( -1.0000000  0.0000000  0.0000000 )
                  (  0.0000000  1.0000000  0.0000000 )
                  (  0.0000000  0.0000000  1.0000000 )


      isym = 29     inv. 180 deg rotation - cart. axis [1,1,0]   

 cryst.   s(29) = (     0          1          0      )
                  (     1          0          0      )
                  (     0          0          1      )

 cart.    s(29) = (  0.0000000 -1.0000000  0.0000000 )
                  ( -1.0000000  0.0000000  0.0000000 )
                  (  0.0000000  0.0000000  1.0000000 )


      isym = 30     inv. 180 deg rotation - cart. axis [1,-1,0]  

 cryst.   s(30) = (     1          0         -1      )
                  (     0          1         -1      )
                  (     0          0         -1      )

 cart.    s(30) = (  0.0000000  1.0000000  0.0000000 )
                  (  1.0000000  0.0000000  0.0000000 )
                  (  0.0000000  0.0000000  1.0000000 )


      isym = 31     inv.  90 deg rotation - cart. axis [0,0,-1]  

 cryst.   s(31) = (     0         -1          0      )
                  (     0         -1          1      )
                  (     1         -1          0      )

 cart.    s(31) = (  0.0000000 -1.0000000  0.0000000 )
                  (  1.0000000  0.0000000  0.0000000 )
                  (  0.0000000  0.0000000 -1.0000000 )


      isym = 32     inv.  90 deg rotation - cart. axis [0,0,1]   

 cryst.   s(32) = (    -1          0          1      )
                  (    -1          0          0      )
                  (    -1          1          0      )

 cart.    s(32) = (  0.0000000  1.0000000  0.0000000 )
                  ( -1.0000000  0.0000000  0.0000000 )
                  (  0.0000000  0.0000000 -1.0000000 )


      isym = 33     inv. 180 deg rotation - cart. axis [1,0,1]   

 cryst.   s(33) = (     1          0          0      )
                  (     0          0          1      )
                  (     0          1          0      )

 cart.    s(33) = (  0.0000000  0.0000000 -1.0000000 )
                  (  0.0000000  1.0000000  0.0000000 )
                  ( -1.0000000  0.0000000  0.0000000 )


      isym = 34     inv. 180 deg rotation - cart. axis [-1,0,1]  

 cryst.   s(34) = (    -1          0          0      )
                  (    -1          1          0      )
                  (    -1          0          1      )

 cart.    s(34) = (  0.0000000  0.0000000  1.0000000 )
                  (  0.0000000  1.0000000  0.0000000 )
                  (  1.0000000  0.0000000  0.0000000 )


      isym = 35     inv.  90 deg rotation - cart. axis [0,1,0]   

 cryst.   s(35) = (     0         -1          1      )
                  (     1         -1          0      )
                  (     0         -1          0      )

 cart.    s(35) = (  0.0000000  0.0000000 -1.0000000 )
                  (  0.0000000 -1.0000000  0.0000000 )
                  (  1.0000000  0.0000000  0.0000000 )


      isym = 36     inv.  90 deg rotation - cart. axis [0,-1,0]  

 cryst.   s(36) = (     0          1         -1      )
                  (     0          0         -1      )
                  (     1          0         -1      )

 cart.    s(36) = (  0.0000000  0.0000000  1.0000000 )
                  (  0.0000000 -1.0000000  0.0000000 )
                  ( -1.0000000  0.0000000  0.0000000 )


      isym = 37     inv. 180 deg rotation - cart. axis [0,1,1]   

 cryst.   s(37) = (     1         -1          0      )
                  (     0         -1          0      )
                  (     0         -1          1      )

 cart.    s(37) = (  1.0000000  0.0000000  0.0000000 )
                  (  0.0000000  0.0000000 -1.0000000 )
                  (  0.0000000 -1.0000000  0.0000000 )


      isym = 38     inv. 180 deg rotation - cart. axis [0,1,-1]  

 cryst.   s(38) = (     0          0          1      )
                  (     0          1          0      )
                  (     1          0          0      )

 cart.    s(38) = (  1.0000000  0.0000000  0.0000000 )
                  (  0.0000000  0.0000000  1.0000000 )
                  (  0.0000000  1.0000000  0.0000000 )


      isym = 39     inv.  90 deg rotation - cart. axis [-1,0,0]  

 cryst.   s(39) = (     0          0         -1      )
                  (     1          0         -1      )
                  (     0          1         -1      )

 cart.    s(39) = ( -1.0000000  0.0000000  0.0000000 )
                  (  0.0000000  0.0000000 -1.0000000 )
                  (  0.0000000  1.0000000  0.0000000 )


      isym = 40     inv.  90 deg rotation - cart. axis [1,0,0]   

 cryst.   s(40) = (    -1          1          0      )
                  (    -1          0          1      )
                  (    -1          0          0      )

 cart.    s(40) = ( -1.0000000  0.0000000  0.0000000 )
                  (  0.0000000  0.0000000  1.0000000 )
                  (  0.0000000 -1.0000000  0.0000000 )


      isym = 41     inv. 120 deg rotation - cart. axis [-1,-1,-1]

 cryst.   s(41) = (     1          0         -1      )
                  (     1         -1          0      )
                  (     1          0          0      )

 cart.    s(41) = (  0.0000000 -1.0000000  0.0000000 )
                  (  0.0000000  0.0000000 -1.0000000 )
                  ( -1.0000000  0.0000000  0.0000000 )


      isym = 42     inv. 120 deg rotation - cart. axis [-1,1,1]  

 cryst.   s(42) = (     0         -1          0      )
                  (     0          0         -1      )
                  (    -1          0          0      )

 cart.    s(42) = (  0.0000000  1.0000000  0.0000000 )
                  (  0.0000000  0.0000000 -1.0000000 )
                  (  1.0000000  0.0000000  0.0000000 )


      isym = 43     inv. 120 deg rotation - cart. axis [1,1,-1]  

 cryst.   s(43) = (    -1          0          1      )
                  (     0          0          1      )
                  (     0         -1          1      )

 cart.    s(43) = (  0.0000000 -1.0000000  0.0000000 )
                  (  0.0000000  0.0000000  1.0000000 )
                  (  1.0000000  0.0000000  0.0000000 )


      isym = 44     inv. 120 deg rotation - cart. axis [1,-1,1]  

 cryst.   s(44) = (     0          1          0      )
                  (    -1          1          0      )
                  (     0          1         -1      )

 cart.    s(44) = (  0.0000000  1.0000000  0.0000000 )
                  (  0.0000000  0.0000000  1.0000000 )
                  ( -1.0000000  0.0000000  0.0000000 )


      isym = 45     inv. 120 deg rotation - cart. axis [1,1,1]   

 cryst.   s(45) = (     0          0          1      )
                  (     0         -1          1      )
                  (    -1          0          1      )

 cart.    s(45) = (  0.0000000  0.0000000 -1.0000000 )
                  ( -1.0000000  0.0000000  0.0000000 )
                  (  0.0000000 -1.0000000  0.0000000 )


      isym = 46     inv. 120 deg rotation - cart. axis [-1,1,-1] 

 cryst.   s(46) = (     1         -1          0      )
                  (     1          0          0      )
                  (     1          0         -1      )

 cart.    s(46) = (  0.0000000  0.0000000 -1.0000000 )
                  (  1.0000000  0.0000000  0.0000000 )
                  (  0.0000000  1.0000000  0.0000000 )


      isym = 47     inv. 120 deg rotation - cart. axis [1,-1,-1] 

 cryst.   s(47) = (     0          0         -1      )
                  (    -1          0          0      )
                  (     0         -1          0      )

 cart.    s(47) = (  0.0000000  0.0000000  1.0000000 )
                  (  1.0000000  0.0000000  0.0000000 )
                  (  0.0000000 -1.0000000  0.0000000 )


      isym = 48     inv. 120 deg rotation - cart. axis [-1,-1,1] 

 cryst.   s(48) = (    -1          1          0      )
                  (     0          1         -1      )
                  (     0          1          0      )

 cart.    s(48) = (  0.0000000  0.0000000  1.0000000 )
                  ( -1.0000000  0.0000000  0.0000000 )
                  (  0.0000000  1.0000000  0.0000000 )


     point group O_h (m-3m) 
     there are 10 classes
     the character table:

       E     8C3   6C2'  6C4   3C2   i     6S4   8S6   3s_h  6s_d 
A_1g   1.00  1.00  1.00  1.00  1.00  1.00  1.00  1.00  1.00  1.00
A_2g   1.00  1.00 -1.00 -1.00  1.00  1.00 -1.00  1.00  1.00 -1.00
E_g    2.00 -1.00  0.00  0.00  2.00  2.00  0.00 -1.00  2.00  0.00
T_1g   3.00  0.00 -1.00  1.00 -1.00  3.00  1.00  0.00 -1.00 -1.00
T_2g   3.00  0.00  1.00 -1.00 -1.00  3.00 -1.00  0.00 -1.00  1.00
A_1u   1.00  1.00  1.00  1.00  1.00 -1.00 -1.00 -1.00 -1.00 -1.00
A_2u   1.00  1.00 -1.00 -1.00  1.00 -1.00  1.00 -1.00 -1.00  1.00
E_u    2.00 -1.00  0.00  0.00  2.00 -2.00  0.00  1.00 -2.00  0.00
T_1u   3.00  0.00 -1.00  1.00 -1.00 -3.00 -1.00  0.00  1.00  1.00
T_2u   3.00  0.00  1.00 -1.00 -1.00 -3.00  1.00  0.00  1.00 -1.00

     the symmetry operations in each class:
     E        1
     3C2      2    4    3
     6C2'     5    6   14   13   10    9
     6C4      7    8   15   16   12   11
     8C3     17   19   20   18   24   21   22   23
     i       25
     3s_h    26   28   27
     6s_d    29   30   38   37   34   33
     6S4     31   32   39   40   36   35
     8S6     41   43   44   42   48   45   46   47

   Cartesian axes

     site n.     atom                  positions (alat units)
         1           Fe  tau(   1) = (   0.0000000   0.0000000   0.0000000  )

   Crystallographic axes

     site n.     atom                  positions (cryst. coord.)
         1           Fe  tau(   1) = (  0.0000000  0.0000000  0.0000000  )

     number of k points=    28  Marzari-Vanderbilt smearing, width (Ry)=  0.0200
                       cart. coord. in units 2pi/alat
        k(    1) = (  -0.0833333   0.0833333   0.0833333), wk =   0.0185185
        k(    2) = (  -0.2500000   0.2500000  -0.0833333), wk =   0.0555556
        k(    3) = (  -0.4166667   0.4166667  -0.2500000), wk =   0.0555556
        k(    4) = (   0.4166667  -0.4166667   0.5833333), wk =   0.0555556
        k(    5) = (   0.2500000  -0.2500000   0.4166667), wk =   0.0555556
        k(    6) = (   0.0833333  -0.0833333   0.2500000), wk =   0.0555556
        k(    7) = (  -0.0833333   0.4166667   0.0833333), wk =   0.0555556
        k(    8) = (  -0.2500000   0.5833333  -0.0833333), wk =   0.1111111
        k(    9) = (   0.5833333  -0.2500000   0.7500000), wk =   0.1111111
        k(   10) = (   0.4166667  -0.0833333   0.5833333), wk =   0.1111111
        k(   11) = (   0.2500000   0.0833333   0.4166667), wk =   0.1111111
        k(   12) = (  -0.0833333   0.7500000   0.0833333), wk =   0.0555556
        k(   13) = (   0.7500000  -0.0833333   0.9166667), wk =   0.1111111
        k(   14) = (   0.5833333   0.0833333   0.7500000), wk =   0.1111111
        k(   15) = (   0.4166667   0.2500000   0.5833333), wk =   0.1111111
        k(   16) = (  -0.0833333  -0.9166667   0.0833333), wk =   0.0555556
        k(   17) = (  -0.2500000  -0.7500000  -0.0833333), wk =   0.1111111
        k(   18) = (  -0.0833333  -0.5833333   0.0833333), wk =   0.0555556
        k(   19) = (  -0.2500000   0.2500000   0.2500000), wk =   0.0185185
        k(   20) = (  -0.4166667   0.4166667   0.0833333), wk =   0.0555556
        k(   21) = (   0.4166667  -0.4166667   0.9166667), wk =   0.0555556
        k(   22) = (   0.2500000  -0.2500000   0.7500000), wk =   0.0555556
        k(   23) = (  -0.2500000   0.5833333   0.2500000), wk =   0.0555556
        k(   24) = (   0.5833333  -0.2500000   1.0833333), wk =   0.1111111
        k(   25) = (   0.4166667  -0.0833333   0.9166667), wk =   0.1111111
        k(   26) = (  -0.2500000  -1.0833333   0.2500000), wk =   0.0555556
        k(   27) = (  -0.4166667   0.4166667   0.4166667), wk =   0.0185185
        k(   28) = (   0.4166667  -0.4166667   1.2500000), wk =   0.0555556

                       cryst. coord.
        k(    1) = (   0.0833333   0.0833333   0.0833333), wk =   0.0185185
        k(    2) = (   0.0833333   0.0833333   0.2500000), wk =   0.0555556
        k(    3) = (   0.0833333   0.0833333   0.4166667), wk =   0.0555556
        k(    4) = (   0.0833333   0.0833333  -0.4166667), wk =   0.0555556
        k(    5) = (   0.0833333   0.0833333  -0.2500000), wk =   0.0555556
        k(    6) = (   0.0833333   0.0833333  -0.0833333), wk =   0.0555556
        k(    7) = (   0.0833333   0.2500000   0.2500000), wk =   0.0555556
        k(    8) = (   0.0833333   0.2500000   0.4166667), wk =   0.1111111
        k(    9) = (   0.0833333   0.2500000  -0.4166667), wk =   0.1111111
        k(   10) = (   0.0833333   0.2500000  -0.2500000), wk =   0.1111111
        k(   11) = (   0.0833333   0.2500000  -0.0833333), wk =   0.1111111
        k(   12) = (   0.0833333   0.4166667   0.4166667), wk =   0.0555556
        k(   13) = (   0.0833333   0.4166667  -0.4166667), wk =   0.1111111
        k(   14) = (   0.0833333   0.4166667  -0.2500000), wk =   0.1111111
        k(   15) = (   0.0833333   0.4166667  -0.0833333), wk =   0.1111111
        k(   16) = (   0.0833333  -0.4166667  -0.4166667), wk =   0.0555556
        k(   17) = (   0.0833333  -0.4166667  -0.2500000), wk =   0.1111111
        k(   18) = (   0.0833333  -0.2500000  -0.2500000), wk =   0.0555556
        k(   19) = (   0.2500000   0.2500000   0.2500000), wk =   0.0185185
        k(   20) = (   0.2500000   0.2500000   0.4166667), wk =   0.0555556
        k(   21) = (   0.2500000   0.2500000  -0.4166667), wk =   0.0555556
        k(   22) = (   0.2500000   0.2500000  -0.2500000), wk =   0.0555556
        k(   23) = (   0.2500000   0.4166667   0.4166667), wk =   0.0555556
        k(   24) = (   0.2500000   0.4166667  -0.4166667), wk =   0.1111111
        k(   25) = (   0.2500000   0.4166667  -0.2500000), wk =   0.1111111
        k(   26) = (   0.2500000  -0.4166667  -0.4166667), wk =   0.0555556
        k(   27) = (   0.4166667   0.4166667   0.4166667), wk =   0.0185185
        k(   28) = (   0.4166667   0.4166667  -0.4166667), wk =   0.0555556

     Dense  grid:      645 G-vectors     FFT dimensions: (  15,  15,  15)

     Largest allocated arrays     est. size (Mb)     dimensions
        Kohn-Sham Wavefunctions         0.02 Mb     (      88,   12)
        NL pseudopotentials             0.02 Mb     (      88,   18)
        Each V/rho on FFT grid          0.05 Mb     (    3375)
        Each G-vector array             0.00 Mb     (     645)
        G-vector shells                 0.00 Mb     (      26)
     Largest temporary arrays     est. size (Mb)     dimensions
        Auxiliary wavefunctions         0.06 Mb     (      88,   48)
        Each subspace H/S matrix        0.04 Mb     (      48,   48)
        Each <psi_i|beta_j> matrix      0.00 Mb     (      18,   12)
        Arrays for rho mixing           0.41 Mb     (    3375,    8)

     Check: negative/imaginary core charge=   -0.000685    0.000000

     Initial potential from superposition of free atoms

     starting charge   15.99960, renormalised to   16.00000
     Starting wfc are   10 randomized atomic wfcs +    2 random wfc

     total cpu time spent up to now is        1.4 secs

     per-process dynamical memory:     6.7 Mb

     Self-consistent Calculation

     iteration #  1     ecut=    25.00 Ry     beta=0.70
     Davidson diagonalization with overlap
     ethr =  1.00E-02,  avg # of iterations =  3.8

     negative rho (up, down):  2.584E-02 0.000E+00

     total cpu time spent up to now is        1.9 secs

     total energy              =    -239.42822566 Ry
     Harris-Foulkes estimate   =    -242.03641804 Ry
     estimated scf accuracy    <       3.52526372 Ry

     iteration #  2     ecut=    25.00 Ry     beta=0.70
     Davidson diagonalization with overlap
     ethr =  1.00E-02,  avg # of iterations =  2.1

     negative rho (up, down):  2.132E-02 0.000E+00

     total cpu time spent up to now is        2.3 secs

     total energy              =    -240.26450625 Ry
     Harris-Foulkes estimate   =    -241.29883344 Ry
     estimated scf accuracy    <       1.94044172 Ry

     iteration #  3     ecut=    25.00 Ry     beta=0.70
     Davidson diagonalization with overlap
     ethr =  1.00E-02,  avg # of iterations =  2.0

     negative rho (up, down):  2.455E-02 0.000E+00

     total cpu time spent up to now is        2.5 secs

     total energy              =    -240.70111615 Ry
     Harris-Foulkes estimate   =    -240.71163834 Ry
     estimated scf accuracy    <       0.02181563 Ry

     iteration #  4     ecut=    25.00 Ry     beta=0.70
     Davidson diagonalization with overlap
     ethr =  1.36E-04,  avg # of iterations =  2.0

     negative rho (up, down):  2.443E-02 0.000E+00

     total cpu time spent up to now is        2.8 secs

     total energy              =    -240.70510844 Ry
     Harris-Foulkes estimate   =    -240.70518316 Ry
     estimated scf accuracy    <       0.00020658 Ry

     iteration #  5     ecut=    25.00 Ry     beta=0.70
     Davidson diagonalization with overlap
     ethr =  1.29E-06,  avg # of iterations =  2.1

     negative rho (up, down):  2.444E-02 0.000E+00

     total cpu time spent up to now is        3.0 secs

     total energy              =    -240.70515262 Ry
     Harris-Foulkes estimate   =    -240.70515754 Ry
     estimated scf accuracy    <       0.00000974 Ry

     iteration #  6     ecut=    25.00 Ry     beta=0.70
     Davidson diagonalization with overlap
     ethr =  6.09E-08,  avg # of iterations =  1.9

     negative rho (up, down):  2.444E-02 0.000E+00

     total cpu time spent up to now is        3.2 secs

     End of self-consistent calculation

          k =-0.0833 0.0833 0.0833 (    71 PWs)   bands (ev):

   -56.8621 -15.0774 -12.8393 -12.8393  28.9808  45.5540  45.6454  45.6454
    49.4301  49.4301  67.0124  73.4402

     occupation numbers 
     1.0000   1.0000   1.0000   1.0000   1.0000   0.0000   0.0000   0.0000
     0.0000   0.0000   0.0000   0.0000

          k =-0.2500 0.2500-0.0833 (    81 PWs)   bands (ev):

   -56.9239 -18.5706 -16.1443 -14.6797  31.0042  39.4768  40.4706  42.1271
    43.4185  45.7261  66.7602  68.4878

     occupation numbers 
     1.0000   1.0000   1.0000   1.0000   1.0000   1.0000   1.0000   0.6471
     0.0000   0.0000   0.0000   0.0000

          k =-0.4167 0.4167-0.2500 (    81 PWs)   bands (ev):

   -56.5773 -20.1639 -16.5122 -14.7357  34.0297  37.6246  42.2933  42.8642
    43.3991  44.9144  59.0541  66.2501

     occupation numbers 
     1.0000   1.0000   1.0000   1.0000   1.0000   1.0000   0.2344   0.0000
     0.0000   0.0000   0.0000   0.0000

          k = 0.4167-0.4167 0.5833 (    83 PWs)   bands (ev):

   -56.5332 -20.7374 -16.3938 -16.2545  33.5725  38.8081  41.5511  42.0422
    43.8031  44.3056  54.8048  65.2905

     occupation numbers 
     1.0000   1.0000   1.0000   1.0000   1.0000   1.0000   1.0122   0.8641
     0.0000   0.0000   0.0000   0.0000

          k = 0.2500-0.2500 0.4167 (    82 PWs)   bands (ev):

   -56.7397 -19.0552 -16.4863 -16.0131  33.4564  38.0443  41.8074  41.8366
    42.6113  43.6482  62.3103  67.6831

     occupation numbers 
     1.0000   1.0000   1.0000   1.0000   1.0000   1.0000   1.0813   1.0833
     0.0051   0.0000   0.0000   0.0000

          k = 0.0833-0.0833 0.2500 (    83 PWs)   bands (ev):

   -57.0880 -17.9856 -16.0206 -15.9497  29.9370  40.2559  40.9209  41.2443
    42.0342  43.7395  67.9248  70.0993

     occupation numbers 
     1.0000   1.0000   1.0000   1.0000   1.0000   1.0000   1.0000   1.0001
     0.8817   0.0000   0.0000   0.0000

          k =-0.0833 0.4167 0.0833 (    81 PWs)   bands (ev):

   -56.8604 -18.1614 -16.5557 -15.7575  31.7979  39.9751  40.9825  41.4729
    43.6756  44.0412  67.3808  69.7700

     occupation numbers 
     1.0000   1.0000   1.0000   1.0000   1.0000   1.0000   1.0000   1.0044
     0.0000   0.0000   0.0000   0.0000

          k =-0.2500 0.5833-0.0833 (    83 PWs)   bands (ev):

   -56.6217 -19.4090 -17.2851 -16.3912  34.0984  37.9036  39.5709  41.4050
    43.4618  43.9777  62.4713  66.3592

     occupation numbers 
     1.0000   1.0000   1.0000   1.0000   1.0000   1.0000   1.0000   1.0016
     0.0000   0.0000   0.0000   0.0000

          k = 0.5833-0.2500 0.7500 (    86 PWs)   bands (ev):

   -56.5094 -20.3378 -18.3983 -16.8800  34.7152  36.5015  38.7807  40.8026
    43.1002  46.5516  54.4639  64.9356

     occupation numbers 
     1.0000   1.0000   1.0000   1.0000   1.0000   1.0000   1.0000   1.0000
     0.0000   0.0000   0.0000   0.0000

          k = 0.4167-0.0833 0.5833 (    85 PWs)   bands (ev):

   -56.5891 -20.0855 -18.0615 -16.4170  34.6791  36.1886  39.5690  41.4479
    42.0642  44.9750  59.1027  64.3526

     occupation numbers 
     1.0000   1.0000   1.0000   1.0000   1.0000   1.0000   1.0000   1.0030
     0.8124   0.0000   0.0000   0.0000

          k = 0.2500 0.0833 0.4167 (    84 PWs)   bands (ev):

   -56.8678 -18.7459 -17.2343 -16.6513  32.5388  38.4354  40.3135  40.9826
    41.4084  43.1816  64.2683  67.6013

     occupation numbers 
     1.0000   1.0000   1.0000   1.0000   1.0000   1.0000   1.0000   1.0000
     1.0016   0.0000   0.0000   0.0000

          k =-0.0833 0.7500 0.0833 (    86 PWs)   bands (ev):

   -56.5447 -20.0073 -18.2139 -17.3662  33.5011  37.0799  40.6337  40.6448
    41.5471  43.5427  62.6818  64.1500

     occupation numbers 
     1.0000   1.0000   1.0000   1.0000   1.0000   1.0000   1.0000   1.0000
     1.0116   0.0000   0.0000   0.0000

          k = 0.7500-0.0833 0.9167 (    86 PWs)   bands (ev):

   -56.3518 -20.7671 -18.0397 -16.7879  32.4048  37.3111  39.2779  41.6424
    43.2502  48.0470  58.3477  61.2390

     occupation numbers 
     1.0000   1.0000   1.0000   1.0000   1.0000   1.0000   1.0000   1.0316
     0.0000   0.0000   0.0000   0.0000

          k = 0.5833 0.0833 0.7500 (    87 PWs)   bands (ev):

   -56.4522 -20.0046 -19.5117 -16.7593  34.2298  36.2036  37.8960  40.8417
    42.2290  49.1345  54.8701  61.6667

     occupation numbers 
     1.0000   1.0000   1.0000   1.0000   1.0000   1.0000   1.0000   1.0000
     0.3744   0.0000   0.0000   0.0000

          k = 0.4167 0.2500 0.5833 (    85 PWs)   bands (ev):

   -56.5953 -20.7625 -17.4039 -16.4682  33.9373  36.6828  40.7465  41.1617
    42.8415  44.4299  55.7556  65.6836

     occupation numbers 
     1.0000   1.0000   1.0000   1.0000   1.0000   1.0000   1.0000   1.0000
     0.0001   0.0000   0.0000   0.0000

          k =-0.0833-0.9167 0.0833 (    88 PWs)   bands (ev):

   -56.4513 -20.6729 -18.3863 -17.9331  32.1517  36.4523  40.2572  41.3389
    41.6857  44.9390  59.7689  61.7877

     occupation numbers 
     1.0000   1.0000   1.0000   1.0000   1.0000   1.0000   1.0000   1.0005
     1.0450   0.0000   0.0000   0.0000

          k =-0.2500-0.7500-0.0833 (    83 PWs)   bands (ev):

   -56.4140 -19.6557 -17.7803 -16.3005  34.7036  37.4153  39.3461  42.9561
    43.3739  45.6379  60.9139  64.0969

     occupation numbers 
     1.0000   1.0000   1.0000   1.0000   1.0000   1.0000   1.0000   0.0000
     0.0000   0.0000   0.0000   0.0000

          k =-0.0833-0.5833 0.0833 (    81 PWs)   bands (ev):

   -56.6242 -18.6624 -16.9174 -16.1643  33.6332  38.8721  40.2338  42.3899
    43.9658  44.1211  65.1712  68.2837

     occupation numbers 
     1.0000   1.0000   1.0000   1.0000   1.0000   1.0000   1.0000   0.0960
     0.0000   0.0000   0.0000   0.0000

          k =-0.2500 0.2500 0.2500 (    77 PWs)   bands (ev):

   -56.7143 -18.9147 -14.1923 -14.1923  32.0725  41.2383  41.3492  41.3492
    47.1436  47.1436  64.8583  68.5060

     occupation numbers 
     1.0000   1.0000   1.0000   1.0000   1.0000   1.0001   1.0006   1.0006
     0.0000   0.0000   0.0000   0.0000

          k =-0.4167 0.4167 0.0833 (    81 PWs)   bands (ev):

   -56.6290 -18.7155 -17.5394 -15.1344  34.0599  38.0552  40.7329  42.9444
    43.0168  44.8456  63.0930  66.4314

     occupation numbers 
     1.0000   1.0000   1.0000   1.0000   1.0000   1.0000   1.0000   0.0000
     0.0000   0.0000   0.0000   0.0000

          k = 0.4167-0.4167 0.9167 (    87 PWs)   bands (ev):

   -56.5637 -20.2435 -18.8540 -17.1054  34.9097  35.8879  37.8245  40.7432
    41.5044  46.5537  56.6973  62.6876

     occupation numbers 
     1.0000   1.0000   1.0000   1.0000   1.0000   1.0000   1.0000   1.0000
     1.0068   0.0000   0.0000   0.0000

          k = 0.2500-0.2500 0.7500 (    83 PWs)   bands (ev):

   -56.4053 -19.2596 -17.8720 -16.5200  35.2902  36.7507  38.5637  43.0352
    45.3604  45.6984  58.0684  65.0764

     occupation numbers 
     1.0000   1.0000   1.0000   1.0000   1.0000   1.0000   1.0000   0.0000
     0.0000   0.0000   0.0000   0.0000

          k =-0.2500 0.5833 0.2500 (    85 PWs)   bands (ev):

   -56.6608 -19.8415 -17.7086 -16.9395  34.1893  36.9264  39.2689  41.1535
    42.8908  43.0840  59.4602  66.5795

     occupation numbers 
     1.0000   1.0000   1.0000   1.0000   1.0000   1.0000   1.0000   1.0000
     0.0000   0.0000   0.0000   0.0000

          k = 0.5833-0.2500 1.0833 (    87 PWs)   bands (ev):

   -56.5093 -19.9512 -19.1496 -17.2187  34.5470  35.9526  37.6266  40.8208
    42.2291  47.0932  57.2211  62.3424

     occupation numbers 
     1.0000   1.0000   1.0000   1.0000   1.0000   1.0000   1.0000   1.0000
     0.3741   0.0000   0.0000   0.0000

          k = 0.4167-0.0833 0.9167 (    87 PWs)   bands (ev):

   -56.3882 -20.1390 -18.4385 -17.7081  32.9282  36.6732  37.8070  40.4544
    43.0156  51.5673  57.2006  59.6435

     occupation numbers 
     1.0000   1.0000   1.0000   1.0000   1.0000   1.0000   1.0000   1.0000
     0.0000   0.0000   0.0000   0.0000

          k =-0.2500-1.0833 0.2500 (    86 PWs)   bands (ev):

   -56.3741 -19.8580 -18.3424 -17.3442  33.9986  36.0211  39.0436  41.5938
    43.0164  50.2599  54.8885  61.6159

     occupation numbers 
     1.0000   1.0000   1.0000   1.0000   1.0000   1.0000   1.0000   1.0197
     0.0000   0.0000   0.0000   0.0000

          k =-0.4167 0.4167 0.4167 (    77 PWs)   bands (ev):

   -56.3702 -20.7197 -14.0745 -14.0745  34.8305  38.9445  43.2230  43.2230
    47.1929  47.1929  56.6099  65.2396

     occupation numbers 
     1.0000   1.0000   1.0000   1.0000   1.0000   1.0000   0.0000   0.0000
     0.0000   0.0000   0.0000   0.0000

          k = 0.4167-0.4167 1.2500 (    83 PWs)   bands (ev):

   -56.4623 -20.4170 -16.7570 -16.3513  34.2971  37.9362  40.5010  42.1896
    43.9794  46.2289  54.7727  65.6635

     occupation numbers 
     1.0000   1.0000   1.0000   1.0000   1.0000   1.0000   1.0000   0.4755
     0.0000   0.0000   0.0000   0.0000

     the Fermi energy is    42.2184 ev

!    total energy              =    -240.70515452 Ry
     Harris-Foulkes estimate   =    -240.70515452 Ry
     estimated scf accuracy    <          4.8E-09 Ry

     The total energy is the sum of the following terms:

     one-electron contribution =     -33.97289433 Ry
     hartree contribution      =      37.52053131 Ry
     xc contribution           =     -27.56983977 Ry
     ewald contribution        =    -216.68230397 Ry
     smearing contrib. (-TS)   =      -0.00064775 Ry

     convergence has been achieved in   6 iterations

     Writing output data file Fe_exc2.save

     init_run     :      0.78s CPU      0.79s WALL (       1 calls)
     electrons    :      1.68s CPU      1.79s WALL (       1 calls)

     Called by init_run:
     wfcinit      :      0.04s CPU      0.05s WALL (       1 calls)
     potinit      :      0.00s CPU      0.00s WALL (       1 calls)

     Called by electrons:
     c_bands      :      1.40s CPU      1.51s WALL (       6 calls)
     sum_band     :      0.19s CPU      0.20s WALL (       6 calls)
     v_of_rho     :      0.04s CPU      0.04s WALL (       7 calls)
     v_h          :      0.00s CPU      0.00s WALL (       7 calls)
     v_xc         :      0.04s CPU      0.04s WALL (       7 calls)
     newd         :      0.04s CPU      0.05s WALL (       7 calls)
     mix_rho      :      0.00s CPU      0.00s WALL (       6 calls)

     Called by c_bands:
     init_us_2    :      0.06s CPU      0.04s WALL (     364 calls)
     cegterg      :      1.36s CPU      1.45s WALL (     168 calls)

     Called by sum_band:
     sum_band:bec :      0.00s CPU      0.00s WALL (     168 calls)
     addusdens    :      0.04s CPU      0.04s WALL (       6 calls)

     Called by *egterg:
     h_psi        :      0.72s CPU      0.77s WALL (     585 calls)
     s_psi        :      0.04s CPU      0.05s WALL (     585 calls)
     g_psi        :      0.00s CPU      0.00s WALL (     389 calls)
     cdiaghg      :      0.43s CPU      0.45s WALL (     557 calls)
     cegterg:over :      0.07s CPU      0.08s WALL (     389 calls)
     cegterg:upda :      0.03s CPU      0.05s WALL (     389 calls)
     cegterg:last :      0.03s CPU      0.03s WALL (     168 calls)

     Called by h_psi:
     h_psi:vloc   :      0.59s CPU      0.66s WALL (     585 calls)
     h_psi:vnl    :      0.11s CPU      0.10s WALL (     585 calls)
     add_vuspsi   :      0.06s CPU      0.05s WALL (     585 calls)

     General routines
     calbec       :      0.06s CPU      0.06s WALL (     753 calls)
     fft          :      0.01s CPU      0.01s WALL (      90 calls)
     fftw         :      0.54s CPU      0.62s WALL (   12630 calls)
     davcio       :      0.00s CPU      0.00s WALL (      28 calls)

     Parallel routines
     fft_scatter  :      0.06s CPU      0.08s WALL (   12720 calls)

     PWSCF        :     3.28s CPU         3.41s WALL


   This run was terminated on:  20:31:31  18Feb2020            

=------------------------------------------------------------------------------=
   JOB DONE.
=------------------------------------------------------------------------------=
