
     Program PWSCF v.5.1 starts on 30Apr2020 at  7:17:13 

     This program is part of the open-source Quantum ESPRESSO suite
     for quantum simulation of materials; please cite
         "P. Giannozzi et al., J. Phys.:Condens. Matter 21 395502 (2009);
          URL http://www.quantum-espresso.org", 
     in publications or presentations arising from this work. More details at
     http://www.quantum-espresso.org/quote

     Parallel version (MPI), running on     1 processors
     Waiting for input...
     Reading input from standard input

     Current dimensions of program PWSCF are:
     Max number of different atomic species (ntypx) = 10
     Max number of k-points (npk) =  40000
     Max angular momentum in pseudopotentials (lmaxx) =  3

     Subspace diagonalization in iterative solution of the eigenvalue problem:
     a serial algorithm will be used


     G-vector sticks info
     --------------------
     sticks:   dense  smooth     PW     G-vecs:    dense   smooth      PW
     Sum         421     421    139                 5577     5577    1067



     bravais-lattice index     =            2
     lattice parameter (alat)  =       9.0000  a.u.
     unit-cell volume          =     182.2500 (a.u.)^3
     number of atoms/cell      =            1
     number of atomic types    =            1
     number of electrons       =        16.00
     number of Kohn-Sham states=           12
     kinetic-energy cutoff     =      37.0000  Ry
     charge density cutoff     =     148.0000  Ry
     convergence threshold     =      1.0E-06
     mixing beta               =       0.7000
     number of iterations used =            8  plain     mixing
     Exchange-correlation      = PBESOL ( 1  4 10  8 0)

     celldm(1)=   9.000000  celldm(2)=   0.000000  celldm(3)=   0.000000
     celldm(4)=   0.000000  celldm(5)=   0.000000  celldm(6)=   0.000000

     crystal axes: (cart. coord. in units of alat)
               a(1) = (  -0.500000   0.000000   0.500000 )  
               a(2) = (   0.000000   0.500000   0.500000 )  
               a(3) = (  -0.500000   0.500000   0.000000 )  

     reciprocal axes: (cart. coord. in units 2 pi/alat)
               b(1) = ( -1.000000 -1.000000  1.000000 )  
               b(2) = (  1.000000  1.000000  1.000000 )  
               b(3) = ( -1.000000  1.000000 -1.000000 )  


     PseudoPot. # 1 for Fe read from file:
     ../pseudo/Fe.pbesol-spn-rrkjus_psl.1.0.0.UPF
     MD5 check sum: 484df5943d2d2fc40c67f98a6337a9e2
     Pseudo is Ultrasoft + core correction, Zval = 16.0
     Generated using "atomic" code by A. Dal Corso  v.6.3
     Using radial grid of 1191 points,  6 beta functions with: 
                l(1) =   0
                l(2) =   0
                l(3) =   1
                l(4) =   1
                l(5) =   2
                l(6) =   2
     Q(r) pseudized with 0 coefficients 


     atomic species   valence    mass     pseudopotential
        Fe            16.00    55.84500     Fe( 1.00)

     48 Sym. Ops., with inversion, found


                                    s                        frac. trans.

      isym =  1     identity                                     

 cryst.   s( 1) = (     1          0          0      )
                  (     0          1          0      )
                  (     0          0          1      )

 cart.    s( 1) = (  1.0000000  0.0000000  0.0000000 )
                  (  0.0000000  1.0000000  0.0000000 )
                  (  0.0000000  0.0000000  1.0000000 )


      isym =  2     180 deg rotation - cart. axis [0,0,1]        

 cryst.   s( 2) = (     0          1         -1      )
                  (     1          0         -1      )
                  (     0          0         -1      )

 cart.    s( 2) = ( -1.0000000  0.0000000  0.0000000 )
                  (  0.0000000 -1.0000000  0.0000000 )
                  (  0.0000000  0.0000000  1.0000000 )


      isym =  3     180 deg rotation - cart. axis [0,1,0]        

 cryst.   s( 3) = (    -1          0          0      )
                  (    -1          0          1      )
                  (    -1          1          0      )

 cart.    s( 3) = ( -1.0000000  0.0000000  0.0000000 )
                  (  0.0000000  1.0000000  0.0000000 )
                  (  0.0000000  0.0000000 -1.0000000 )


      isym =  4     180 deg rotation - cart. axis [1,0,0]        

 cryst.   s( 4) = (     0         -1          1      )
                  (     0         -1          0      )
                  (     1         -1          0      )

 cart.    s( 4) = (  1.0000000  0.0000000  0.0000000 )
                  (  0.0000000 -1.0000000  0.0000000 )
                  (  0.0000000  0.0000000 -1.0000000 )


      isym =  5     180 deg rotation - cart. axis [1,1,0]        

 cryst.   s( 5) = (     0         -1          0      )
                  (    -1          0          0      )
                  (     0          0         -1      )

 cart.    s( 5) = (  0.0000000  1.0000000  0.0000000 )
                  (  1.0000000  0.0000000  0.0000000 )
                  (  0.0000000  0.0000000 -1.0000000 )


      isym =  6     180 deg rotation - cart. axis [1,-1,0]       

 cryst.   s( 6) = (    -1          0          1      )
                  (     0         -1          1      )
                  (     0          0          1      )

 cart.    s( 6) = (  0.0000000 -1.0000000  0.0000000 )
                  ( -1.0000000  0.0000000  0.0000000 )
                  (  0.0000000  0.0000000 -1.0000000 )


      isym =  7      90 deg rotation - cart. axis [0,0,-1]       

 cryst.   s( 7) = (     0          1          0      )
                  (     0          1         -1      )
                  (    -1          1          0      )

 cart.    s( 7) = (  0.0000000  1.0000000  0.0000000 )
                  ( -1.0000000  0.0000000  0.0000000 )
                  (  0.0000000  0.0000000  1.0000000 )


      isym =  8      90 deg rotation - cart. axis [0,0,1]        

 cryst.   s( 8) = (     1          0         -1      )
                  (     1          0          0      )
                  (     1         -1          0      )

 cart.    s( 8) = (  0.0000000 -1.0000000  0.0000000 )
                  (  1.0000000  0.0000000  0.0000000 )
                  (  0.0000000  0.0000000  1.0000000 )


      isym =  9     180 deg rotation - cart. axis [1,0,1]        

 cryst.   s( 9) = (    -1          0          0      )
                  (     0          0         -1      )
                  (     0         -1          0      )

 cart.    s( 9) = (  0.0000000  0.0000000  1.0000000 )
                  (  0.0000000 -1.0000000  0.0000000 )
                  (  1.0000000  0.0000000  0.0000000 )


      isym = 10     180 deg rotation - cart. axis [-1,0,1]       

 cryst.   s(10) = (     1          0          0      )
                  (     1         -1          0      )
                  (     1          0         -1      )

 cart.    s(10) = (  0.0000000  0.0000000 -1.0000000 )
                  (  0.0000000 -1.0000000  0.0000000 )
                  ( -1.0000000  0.0000000  0.0000000 )


      isym = 11      90 deg rotation - cart. axis [0,1,0]        

 cryst.   s(11) = (     0          1         -1      )
                  (    -1          1          0      )
                  (     0          1          0      )

 cart.    s(11) = (  0.0000000  0.0000000  1.0000000 )
                  (  0.0000000  1.0000000  0.0000000 )
                  ( -1.0000000  0.0000000  0.0000000 )


      isym = 12      90 deg rotation - cart. axis [0,-1,0]       

 cryst.   s(12) = (     0         -1          1      )
                  (     0          0          1      )
                  (    -1          0          1      )

 cart.    s(12) = (  0.0000000  0.0000000 -1.0000000 )
                  (  0.0000000  1.0000000  0.0000000 )
                  (  1.0000000  0.0000000  0.0000000 )


      isym = 13     180 deg rotation - cart. axis [0,1,1]        

 cryst.   s(13) = (    -1          1          0      )
                  (     0          1          0      )
                  (     0          1         -1      )

 cart.    s(13) = ( -1.0000000  0.0000000  0.0000000 )
                  (  0.0000000  0.0000000  1.0000000 )
                  (  0.0000000  1.0000000  0.0000000 )


      isym = 14     180 deg rotation - cart. axis [0,1,-1]       

 cryst.   s(14) = (     0          0         -1      )
                  (     0         -1          0      )
                  (    -1          0          0      )

 cart.    s(14) = ( -1.0000000  0.0000000  0.0000000 )
                  (  0.0000000  0.0000000 -1.0000000 )
                  (  0.0000000 -1.0000000  0.0000000 )


      isym = 15      90 deg rotation - cart. axis [-1,0,0]       

 cryst.   s(15) = (     0          0          1      )
                  (    -1          0          1      )
                  (     0         -1          1      )

 cart.    s(15) = (  1.0000000  0.0000000  0.0000000 )
                  (  0.0000000  0.0000000  1.0000000 )
                  (  0.0000000 -1.0000000  0.0000000 )


      isym = 16      90 deg rotation - cart. axis [1,0,0]        

 cryst.   s(16) = (     1         -1          0      )
                  (     1          0         -1      )
                  (     1          0          0      )

 cart.    s(16) = (  1.0000000  0.0000000  0.0000000 )
                  (  0.0000000  0.0000000 -1.0000000 )
                  (  0.0000000  1.0000000  0.0000000 )


      isym = 17     120 deg rotation - cart. axis [-1,-1,-1]     

 cryst.   s(17) = (    -1          0          1      )
                  (    -1          1          0      )
                  (    -1          0          0      )

 cart.    s(17) = (  0.0000000  1.0000000  0.0000000 )
                  (  0.0000000  0.0000000  1.0000000 )
                  (  1.0000000  0.0000000  0.0000000 )


      isym = 18     120 deg rotation - cart. axis [-1,1,1]       

 cryst.   s(18) = (     0          1          0      )
                  (     0          0          1      )
                  (     1          0          0      )

 cart.    s(18) = (  0.0000000 -1.0000000  0.0000000 )
                  (  0.0000000  0.0000000  1.0000000 )
                  ( -1.0000000  0.0000000  0.0000000 )


      isym = 19     120 deg rotation - cart. axis [1,1,-1]       

 cryst.   s(19) = (     1          0         -1      )
                  (     0          0         -1      )
                  (     0          1         -1      )

 cart.    s(19) = (  0.0000000  1.0000000  0.0000000 )
                  (  0.0000000  0.0000000 -1.0000000 )
                  ( -1.0000000  0.0000000  0.0000000 )


      isym = 20     120 deg rotation - cart. axis [1,-1,1]       

 cryst.   s(20) = (     0         -1          0      )
                  (     1         -1          0      )
                  (     0         -1          1      )

 cart.    s(20) = (  0.0000000 -1.0000000  0.0000000 )
                  (  0.0000000  0.0000000 -1.0000000 )
                  (  1.0000000  0.0000000  0.0000000 )


      isym = 21     120 deg rotation - cart. axis [1,1,1]        

 cryst.   s(21) = (     0          0         -1      )
                  (     0          1         -1      )
                  (     1          0         -1      )

 cart.    s(21) = (  0.0000000  0.0000000  1.0000000 )
                  (  1.0000000  0.0000000  0.0000000 )
                  (  0.0000000  1.0000000  0.0000000 )


      isym = 22     120 deg rotation - cart. axis [-1,1,-1]      

 cryst.   s(22) = (    -1          1          0      )
                  (    -1          0          0      )
                  (    -1          0          1      )

 cart.    s(22) = (  0.0000000  0.0000000  1.0000000 )
                  ( -1.0000000  0.0000000  0.0000000 )
                  (  0.0000000 -1.0000000  0.0000000 )


      isym = 23     120 deg rotation - cart. axis [1,-1,-1]      

 cryst.   s(23) = (     0          0          1      )
                  (     1          0          0      )
                  (     0          1          0      )

 cart.    s(23) = (  0.0000000  0.0000000 -1.0000000 )
                  ( -1.0000000  0.0000000  0.0000000 )
                  (  0.0000000  1.0000000  0.0000000 )


      isym = 24     120 deg rotation - cart. axis [-1,-1,1]      

 cryst.   s(24) = (     1         -1          0      )
                  (     0         -1          1      )
                  (     0         -1          0      )

 cart.    s(24) = (  0.0000000  0.0000000 -1.0000000 )
                  (  1.0000000  0.0000000  0.0000000 )
                  (  0.0000000 -1.0000000  0.0000000 )


      isym = 25     inversion                                    

 cryst.   s(25) = (    -1          0          0      )
                  (     0         -1          0      )
                  (     0          0         -1      )

 cart.    s(25) = ( -1.0000000  0.0000000  0.0000000 )
                  (  0.0000000 -1.0000000  0.0000000 )
                  (  0.0000000  0.0000000 -1.0000000 )


      isym = 26     inv. 180 deg rotation - cart. axis [0,0,1]   

 cryst.   s(26) = (     0         -1          1      )
                  (    -1          0          1      )
                  (     0          0          1      )

 cart.    s(26) = (  1.0000000  0.0000000  0.0000000 )
                  (  0.0000000  1.0000000  0.0000000 )
                  (  0.0000000  0.0000000 -1.0000000 )


      isym = 27     inv. 180 deg rotation - cart. axis [0,1,0]   

 cryst.   s(27) = (     1          0          0      )
                  (     1          0         -1      )
                  (     1         -1          0      )

 cart.    s(27) = (  1.0000000  0.0000000  0.0000000 )
                  (  0.0000000 -1.0000000  0.0000000 )
                  (  0.0000000  0.0000000  1.0000000 )


      isym = 28     inv. 180 deg rotation - cart. axis [1,0,0]   

 cryst.   s(28) = (     0          1         -1      )
                  (     0          1          0      )
                  (    -1          1          0      )

 cart.    s(28) = ( -1.0000000  0.0000000  0.0000000 )
                  (  0.0000000  1.0000000  0.0000000 )
                  (  0.0000000  0.0000000  1.0000000 )


      isym = 29     inv. 180 deg rotation - cart. axis [1,1,0]   

 cryst.   s(29) = (     0          1          0      )
                  (     1          0          0      )
                  (     0          0          1      )

 cart.    s(29) = (  0.0000000 -1.0000000  0.0000000 )
                  ( -1.0000000  0.0000000  0.0000000 )
                  (  0.0000000  0.0000000  1.0000000 )


      isym = 30     inv. 180 deg rotation - cart. axis [1,-1,0]  

 cryst.   s(30) = (     1          0         -1      )
                  (     0          1         -1      )
                  (     0          0         -1      )

 cart.    s(30) = (  0.0000000  1.0000000  0.0000000 )
                  (  1.0000000  0.0000000  0.0000000 )
                  (  0.0000000  0.0000000  1.0000000 )


      isym = 31     inv.  90 deg rotation - cart. axis [0,0,-1]  

 cryst.   s(31) = (     0         -1          0      )
                  (     0         -1          1      )
                  (     1         -1          0      )

 cart.    s(31) = (  0.0000000 -1.0000000  0.0000000 )
                  (  1.0000000  0.0000000  0.0000000 )
                  (  0.0000000  0.0000000 -1.0000000 )


      isym = 32     inv.  90 deg rotation - cart. axis [0,0,1]   

 cryst.   s(32) = (    -1          0          1      )
                  (    -1          0          0      )
                  (    -1          1          0      )

 cart.    s(32) = (  0.0000000  1.0000000  0.0000000 )
                  ( -1.0000000  0.0000000  0.0000000 )
                  (  0.0000000  0.0000000 -1.0000000 )


      isym = 33     inv. 180 deg rotation - cart. axis [1,0,1]   

 cryst.   s(33) = (     1          0          0      )
                  (     0          0          1      )
                  (     0          1          0      )

 cart.    s(33) = (  0.0000000  0.0000000 -1.0000000 )
                  (  0.0000000  1.0000000  0.0000000 )
                  ( -1.0000000  0.0000000  0.0000000 )


      isym = 34     inv. 180 deg rotation - cart. axis [-1,0,1]  

 cryst.   s(34) = (    -1          0          0      )
                  (    -1          1          0      )
                  (    -1          0          1      )

 cart.    s(34) = (  0.0000000  0.0000000  1.0000000 )
                  (  0.0000000  1.0000000  0.0000000 )
                  (  1.0000000  0.0000000  0.0000000 )


      isym = 35     inv.  90 deg rotation - cart. axis [0,1,0]   

 cryst.   s(35) = (     0         -1          1      )
                  (     1         -1          0      )
                  (     0         -1          0      )

 cart.    s(35) = (  0.0000000  0.0000000 -1.0000000 )
                  (  0.0000000 -1.0000000  0.0000000 )
                  (  1.0000000  0.0000000  0.0000000 )


      isym = 36     inv.  90 deg rotation - cart. axis [0,-1,0]  

 cryst.   s(36) = (     0          1         -1      )
                  (     0          0         -1      )
                  (     1          0         -1      )

 cart.    s(36) = (  0.0000000  0.0000000  1.0000000 )
                  (  0.0000000 -1.0000000  0.0000000 )
                  ( -1.0000000  0.0000000  0.0000000 )


      isym = 37     inv. 180 deg rotation - cart. axis [0,1,1]   

 cryst.   s(37) = (     1         -1          0      )
                  (     0         -1          0      )
                  (     0         -1          1      )

 cart.    s(37) = (  1.0000000  0.0000000  0.0000000 )
                  (  0.0000000  0.0000000 -1.0000000 )
                  (  0.0000000 -1.0000000  0.0000000 )


      isym = 38     inv. 180 deg rotation - cart. axis [0,1,-1]  

 cryst.   s(38) = (     0          0          1      )
                  (     0          1          0      )
                  (     1          0          0      )

 cart.    s(38) = (  1.0000000  0.0000000  0.0000000 )
                  (  0.0000000  0.0000000  1.0000000 )
                  (  0.0000000  1.0000000  0.0000000 )


      isym = 39     inv.  90 deg rotation - cart. axis [-1,0,0]  

 cryst.   s(39) = (     0          0         -1      )
                  (     1          0         -1      )
                  (     0          1         -1      )

 cart.    s(39) = ( -1.0000000  0.0000000  0.0000000 )
                  (  0.0000000  0.0000000 -1.0000000 )
                  (  0.0000000  1.0000000  0.0000000 )


      isym = 40     inv.  90 deg rotation - cart. axis [1,0,0]   

 cryst.   s(40) = (    -1          1          0      )
                  (    -1          0          1      )
                  (    -1          0          0      )

 cart.    s(40) = ( -1.0000000  0.0000000  0.0000000 )
                  (  0.0000000  0.0000000  1.0000000 )
                  (  0.0000000 -1.0000000  0.0000000 )


      isym = 41     inv. 120 deg rotation - cart. axis [-1,-1,-1]

 cryst.   s(41) = (     1          0         -1      )
                  (     1         -1          0      )
                  (     1          0          0      )

 cart.    s(41) = (  0.0000000 -1.0000000  0.0000000 )
                  (  0.0000000  0.0000000 -1.0000000 )
                  ( -1.0000000  0.0000000  0.0000000 )


      isym = 42     inv. 120 deg rotation - cart. axis [-1,1,1]  

 cryst.   s(42) = (     0         -1          0      )
                  (     0          0         -1      )
                  (    -1          0          0      )

 cart.    s(42) = (  0.0000000  1.0000000  0.0000000 )
                  (  0.0000000  0.0000000 -1.0000000 )
                  (  1.0000000  0.0000000  0.0000000 )


      isym = 43     inv. 120 deg rotation - cart. axis [1,1,-1]  

 cryst.   s(43) = (    -1          0          1      )
                  (     0          0          1      )
                  (     0         -1          1      )

 cart.    s(43) = (  0.0000000 -1.0000000  0.0000000 )
                  (  0.0000000  0.0000000  1.0000000 )
                  (  1.0000000  0.0000000  0.0000000 )


      isym = 44     inv. 120 deg rotation - cart. axis [1,-1,1]  

 cryst.   s(44) = (     0          1          0      )
                  (    -1          1          0      )
                  (     0          1         -1      )

 cart.    s(44) = (  0.0000000  1.0000000  0.0000000 )
                  (  0.0000000  0.0000000  1.0000000 )
                  ( -1.0000000  0.0000000  0.0000000 )


      isym = 45     inv. 120 deg rotation - cart. axis [1,1,1]   

 cryst.   s(45) = (     0          0          1      )
                  (     0         -1          1      )
                  (    -1          0          1      )

 cart.    s(45) = (  0.0000000  0.0000000 -1.0000000 )
                  ( -1.0000000  0.0000000  0.0000000 )
                  (  0.0000000 -1.0000000  0.0000000 )


      isym = 46     inv. 120 deg rotation - cart. axis [-1,1,-1] 

 cryst.   s(46) = (     1         -1          0      )
                  (     1          0          0      )
                  (     1          0         -1      )

 cart.    s(46) = (  0.0000000  0.0000000 -1.0000000 )
                  (  1.0000000  0.0000000  0.0000000 )
                  (  0.0000000  1.0000000  0.0000000 )


      isym = 47     inv. 120 deg rotation - cart. axis [1,-1,-1] 

 cryst.   s(47) = (     0          0         -1      )
                  (    -1          0          0      )
                  (     0         -1          0      )

 cart.    s(47) = (  0.0000000  0.0000000  1.0000000 )
                  (  1.0000000  0.0000000  0.0000000 )
                  (  0.0000000 -1.0000000  0.0000000 )


      isym = 48     inv. 120 deg rotation - cart. axis [-1,-1,1] 

 cryst.   s(48) = (    -1          1          0      )
                  (     0          1         -1      )
                  (     0          1          0      )

 cart.    s(48) = (  0.0000000  0.0000000  1.0000000 )
                  ( -1.0000000  0.0000000  0.0000000 )
                  (  0.0000000  1.0000000  0.0000000 )


     point group O_h (m-3m) 
     there are 10 classes
     the character table:

       E     8C3   6C2'  6C4   3C2   i     6S4   8S6   3s_h  6s_d 
A_1g   1.00  1.00  1.00  1.00  1.00  1.00  1.00  1.00  1.00  1.00
A_2g   1.00  1.00 -1.00 -1.00  1.00  1.00 -1.00  1.00  1.00 -1.00
E_g    2.00 -1.00  0.00  0.00  2.00  2.00  0.00 -1.00  2.00  0.00
T_1g   3.00  0.00 -1.00  1.00 -1.00  3.00  1.00  0.00 -1.00 -1.00
T_2g   3.00  0.00  1.00 -1.00 -1.00  3.00 -1.00  0.00 -1.00  1.00
A_1u   1.00  1.00  1.00  1.00  1.00 -1.00 -1.00 -1.00 -1.00 -1.00
A_2u   1.00  1.00 -1.00 -1.00  1.00 -1.00  1.00 -1.00 -1.00  1.00
E_u    2.00 -1.00  0.00  0.00  2.00 -2.00  0.00  1.00 -2.00  0.00
T_1u   3.00  0.00 -1.00  1.00 -1.00 -3.00 -1.00  0.00  1.00  1.00
T_2u   3.00  0.00  1.00 -1.00 -1.00 -3.00  1.00  0.00  1.00 -1.00

     the symmetry operations in each class:
     E        1
     3C2      2    4    3
     6C2'     5    6   14   13   10    9
     6C4      7    8   15   16   12   11
     8C3     17   19   20   18   24   21   22   23
     i       25
     3s_h    26   28   27
     6s_d    29   30   38   37   34   33
     6S4     31   32   39   40   36   35
     8S6     41   43   44   42   48   45   46   47

   Cartesian axes

     site n.     atom                  positions (alat units)
         1           Fe  tau(   1) = (   0.0000000   0.0000000   0.0000000  )

   Crystallographic axes

     site n.     atom                  positions (cryst. coord.)
         1           Fe  tau(   1) = (  0.0000000  0.0000000  0.0000000  )

     number of k points=    28  Marzari-Vanderbilt smearing, width (Ry)=  0.0200
                       cart. coord. in units 2pi/alat
        k(    1) = (  -0.0833333   0.0833333   0.0833333), wk =   0.0185185
        k(    2) = (  -0.2500000   0.2500000  -0.0833333), wk =   0.0555556
        k(    3) = (  -0.4166667   0.4166667  -0.2500000), wk =   0.0555556
        k(    4) = (   0.4166667  -0.4166667   0.5833333), wk =   0.0555556
        k(    5) = (   0.2500000  -0.2500000   0.4166667), wk =   0.0555556
        k(    6) = (   0.0833333  -0.0833333   0.2500000), wk =   0.0555556
        k(    7) = (  -0.0833333   0.4166667   0.0833333), wk =   0.0555556
        k(    8) = (  -0.2500000   0.5833333  -0.0833333), wk =   0.1111111
        k(    9) = (   0.5833333  -0.2500000   0.7500000), wk =   0.1111111
        k(   10) = (   0.4166667  -0.0833333   0.5833333), wk =   0.1111111
        k(   11) = (   0.2500000   0.0833333   0.4166667), wk =   0.1111111
        k(   12) = (  -0.0833333   0.7500000   0.0833333), wk =   0.0555556
        k(   13) = (   0.7500000  -0.0833333   0.9166667), wk =   0.1111111
        k(   14) = (   0.5833333   0.0833333   0.7500000), wk =   0.1111111
        k(   15) = (   0.4166667   0.2500000   0.5833333), wk =   0.1111111
        k(   16) = (  -0.0833333  -0.9166667   0.0833333), wk =   0.0555556
        k(   17) = (  -0.2500000  -0.7500000  -0.0833333), wk =   0.1111111
        k(   18) = (  -0.0833333  -0.5833333   0.0833333), wk =   0.0555556
        k(   19) = (  -0.2500000   0.2500000   0.2500000), wk =   0.0185185
        k(   20) = (  -0.4166667   0.4166667   0.0833333), wk =   0.0555556
        k(   21) = (   0.4166667  -0.4166667   0.9166667), wk =   0.0555556
        k(   22) = (   0.2500000  -0.2500000   0.7500000), wk =   0.0555556
        k(   23) = (  -0.2500000   0.5833333   0.2500000), wk =   0.0555556
        k(   24) = (   0.5833333  -0.2500000   1.0833333), wk =   0.1111111
        k(   25) = (   0.4166667  -0.0833333   0.9166667), wk =   0.1111111
        k(   26) = (  -0.2500000  -1.0833333   0.2500000), wk =   0.0555556
        k(   27) = (  -0.4166667   0.4166667   0.4166667), wk =   0.0185185
        k(   28) = (   0.4166667  -0.4166667   1.2500000), wk =   0.0555556

                       cryst. coord.
        k(    1) = (   0.0833333   0.0833333   0.0833333), wk =   0.0185185
        k(    2) = (   0.0833333   0.0833333   0.2500000), wk =   0.0555556
        k(    3) = (   0.0833333   0.0833333   0.4166667), wk =   0.0555556
        k(    4) = (   0.0833333   0.0833333  -0.4166667), wk =   0.0555556
        k(    5) = (   0.0833333   0.0833333  -0.2500000), wk =   0.0555556
        k(    6) = (   0.0833333   0.0833333  -0.0833333), wk =   0.0555556
        k(    7) = (   0.0833333   0.2500000   0.2500000), wk =   0.0555556
        k(    8) = (   0.0833333   0.2500000   0.4166667), wk =   0.1111111
        k(    9) = (   0.0833333   0.2500000  -0.4166667), wk =   0.1111111
        k(   10) = (   0.0833333   0.2500000  -0.2500000), wk =   0.1111111
        k(   11) = (   0.0833333   0.2500000  -0.0833333), wk =   0.1111111
        k(   12) = (   0.0833333   0.4166667   0.4166667), wk =   0.0555556
        k(   13) = (   0.0833333   0.4166667  -0.4166667), wk =   0.1111111
        k(   14) = (   0.0833333   0.4166667  -0.2500000), wk =   0.1111111
        k(   15) = (   0.0833333   0.4166667  -0.0833333), wk =   0.1111111
        k(   16) = (   0.0833333  -0.4166667  -0.4166667), wk =   0.0555556
        k(   17) = (   0.0833333  -0.4166667  -0.2500000), wk =   0.1111111
        k(   18) = (   0.0833333  -0.2500000  -0.2500000), wk =   0.0555556
        k(   19) = (   0.2500000   0.2500000   0.2500000), wk =   0.0185185
        k(   20) = (   0.2500000   0.2500000   0.4166667), wk =   0.0555556
        k(   21) = (   0.2500000   0.2500000  -0.4166667), wk =   0.0555556
        k(   22) = (   0.2500000   0.2500000  -0.2500000), wk =   0.0555556
        k(   23) = (   0.2500000   0.4166667   0.4166667), wk =   0.0555556
        k(   24) = (   0.2500000   0.4166667  -0.4166667), wk =   0.1111111
        k(   25) = (   0.2500000   0.4166667  -0.2500000), wk =   0.1111111
        k(   26) = (   0.2500000  -0.4166667  -0.4166667), wk =   0.0555556
        k(   27) = (   0.4166667   0.4166667   0.4166667), wk =   0.0185185
        k(   28) = (   0.4166667   0.4166667  -0.4166667), wk =   0.0555556

     Dense  grid:     5577 G-vectors     FFT dimensions: (  25,  25,  25)

     Largest allocated arrays     est. size (Mb)     dimensions
        Kohn-Sham Wavefunctions         0.13 Mb     (     700,   12)
        NL pseudopotentials             0.19 Mb     (     700,   18)
        Each V/rho on FFT grid          0.24 Mb     (   15625)
        Each G-vector array             0.04 Mb     (    5577)
        G-vector shells                 0.00 Mb     (     103)
     Largest temporary arrays     est. size (Mb)     dimensions
        Auxiliary wavefunctions         0.51 Mb     (     700,   48)
        Each subspace H/S matrix        0.04 Mb     (      48,   48)
        Each <psi_i|beta_j> matrix      0.00 Mb     (      18,   12)
        Arrays for rho mixing           1.91 Mb     (   15625,    8)

     Check: negative/imaginary core charge=   -0.000048    0.000000

     Initial potential from superposition of free atoms

     starting charge   15.99960, renormalised to   16.00000
     Starting wfc are   10 randomized atomic wfcs +    2 random wfc

     total cpu time spent up to now is        0.6 secs

     per-process dynamical memory:    13.4 Mb

     Self-consistent Calculation

     iteration #  1     ecut=    37.00 Ry     beta=0.70
     Davidson diagonalization with overlap
     ethr =  1.00E-02,  avg # of iterations =  4.8

     Threshold (ethr) on eigenvalues was too large:
     Diagonalizing with lowered threshold

     Davidson diagonalization with overlap
     ethr =  2.09E-04,  avg # of iterations =  1.8

     total cpu time spent up to now is        1.3 secs

     total energy              =    -246.91135336 Ry
     Harris-Foulkes estimate   =    -246.92595883 Ry
     estimated scf accuracy    <       0.03241268 Ry

     iteration #  2     ecut=    37.00 Ry     beta=0.70
     Davidson diagonalization with overlap
     ethr =  2.03E-04,  avg # of iterations =  2.0

     total cpu time spent up to now is        1.7 secs

     total energy              =    -246.89629732 Ry
     Harris-Foulkes estimate   =    -246.93344815 Ry
     estimated scf accuracy    <       0.11215121 Ry

     iteration #  3     ecut=    37.00 Ry     beta=0.70
     Davidson diagonalization with overlap
     ethr =  2.03E-04,  avg # of iterations =  2.2

     total cpu time spent up to now is        2.0 secs

     total energy              =    -246.91693585 Ry
     Harris-Foulkes estimate   =    -246.92176136 Ry
     estimated scf accuracy    <       0.02009573 Ry

     iteration #  4     ecut=    37.00 Ry     beta=0.70
     Davidson diagonalization with overlap
     ethr =  1.26E-04,  avg # of iterations =  1.1

     total cpu time spent up to now is        2.3 secs

     total energy              =    -246.91926697 Ry
     Harris-Foulkes estimate   =    -246.91925699 Ry
     estimated scf accuracy    <       0.00003113 Ry

     iteration #  5     ecut=    37.00 Ry     beta=0.70
     Davidson diagonalization with overlap
     ethr =  1.95E-07,  avg # of iterations =  3.2

     total cpu time spent up to now is        2.7 secs

     total energy              =    -246.91933517 Ry
     Harris-Foulkes estimate   =    -246.91934158 Ry
     estimated scf accuracy    <       0.00002719 Ry

     iteration #  6     ecut=    37.00 Ry     beta=0.70
     Davidson diagonalization with overlap
     ethr =  1.70E-07,  avg # of iterations =  1.0

     total cpu time spent up to now is        3.0 secs

     total energy              =    -246.91933542 Ry
     Harris-Foulkes estimate   =    -246.91933635 Ry
     estimated scf accuracy    <       0.00000424 Ry

     iteration #  7     ecut=    37.00 Ry     beta=0.70
     Davidson diagonalization with overlap
     ethr =  2.65E-08,  avg # of iterations =  1.1

     total cpu time spent up to now is        3.3 secs

     End of self-consistent calculation

          k =-0.0833 0.0833 0.0833 (   700 PWs)   bands (ev):

   -81.6773 -47.5627 -47.5627 -47.5187   0.9140   4.8517   4.8517   4.8533
     5.1948   5.1948  18.3372  19.8960

     occupation numbers 
     1.0000   1.0000   1.0000   1.0000   1.0000   1.0819   1.0819   1.0821
     0.5687   0.5687   0.0000   0.0000

          k =-0.2500 0.2500-0.0833 (   682 PWs)   bands (ev):

   -81.6726 -47.5126 -47.5034 -47.5009   1.6658   4.8503   5.0152   5.0466
     5.2210   5.3355  14.9008  16.9479

     occupation numbers 
     1.0000   1.0000   1.0000   1.0000   1.0000   1.0818   0.9885   0.9359
     0.4971   0.2292   0.0000   0.0000

          k =-0.4167 0.4167-0.2500 (   690 PWs)   bands (ev):

   -81.6738 -47.5547 -47.5319 -47.4971   3.2220   4.8346   4.9385   4.9779
     5.3892   5.5265  10.1681  16.4525

     occupation numbers 
     1.0000   1.0000   1.0000   1.0000   1.0000   1.0791   1.0662   1.0351
     0.1430   0.0309   0.0000   0.0000

          k = 0.4167-0.4167 0.5833 (   695 PWs)   bands (ev):

   -81.6753 -47.5881 -47.5370 -47.5092   3.7569   4.8610   4.9448   5.2017
     5.3949   6.2177   7.8254  17.0186

     occupation numbers 
     1.0000   1.0000   1.0000   1.0000   1.0000   1.0829   1.0624   0.5498
     0.1355   0.0000   0.0000   0.0000

          k = 0.2500-0.2500 0.4167 (   691 PWs)   bands (ev):

   -81.6742 -47.5375 -47.5249 -47.5242   2.6764   4.7544   4.9261   4.9685
     5.3410   5.4318  11.6284  17.3108

     occupation numbers 
     1.0000   1.0000   1.0000   1.0000   1.0000   1.0550   1.0724   1.0441
     0.2190   0.0936   0.0000   0.0000

          k = 0.0833-0.0833 0.2500 (   687 PWs)   bands (ev):

   -81.6742 -47.5396 -47.5210 -47.4961   1.2955   4.7861   4.9993   5.0328
     5.2096   5.2678  16.6372  18.2178

     occupation numbers 
     1.0000   1.0000   1.0000   1.0000   1.0000   1.0658   1.0105   0.9605
     0.5282   0.3758   0.0000   0.0000

          k =-0.0833 0.4167 0.0833 (   688 PWs)   bands (ev):

   -81.6742 -47.5344 -47.5234 -47.5149   2.0276   4.6909   5.0021   5.1341
     5.1958   5.3072  15.1508  16.5945

     occupation numbers 
     1.0000   1.0000   1.0000   1.0000   1.0000   1.0342   1.0068   0.7349
     0.5660   0.2855   0.0000   0.0000

          k =-0.2500 0.5833-0.0833 (   689 PWs)   bands (ev):

   -81.6743 -47.5446 -47.5300 -47.5186   3.2995   4.6129   4.8850   5.1851
     5.3103   5.6195  12.2520  14.2867

     occupation numbers 
     1.0000   1.0000   1.0000   1.0000   1.0000   1.0158   1.0828   0.5957
     0.2790   0.0083   0.0000   0.0000

          k = 0.5833-0.2500 0.7500 (   692 PWs)   bands (ev):

   -81.6752 -47.5831 -47.5306 -47.5187   4.1484   4.6102   4.8692   5.0899
     5.4571   7.2336   8.2921  13.6791

     occupation numbers 
     1.0000   1.0000   1.0000   1.0000   1.0000   1.0153   1.0833   0.8451
     0.0711   0.0000   0.0000   0.0000

          k = 0.4167-0.0833 0.5833 (   692 PWs)   bands (ev):

   -81.6751 -47.5582 -47.5337 -47.5299   3.7528   4.6492   4.7628   5.1147
     5.3105   5.9966  10.8337  12.9896

     occupation numbers 
     1.0000   1.0000   1.0000   1.0000   1.0000   1.0232   1.0579   0.7849
     0.2786   0.0000   0.0000   0.0000

          k = 0.2500 0.0833 0.4167 (   692 PWs)   bands (ev):

   -81.6748 -47.5535 -47.5260 -47.5187   2.3703   4.7156   4.9488   5.0736
     5.1642   5.3903  13.4193  15.4936

     occupation numbers 
     1.0000   1.0000   1.0000   1.0000   1.0000   1.0419   1.0597   0.8817
     0.6534   0.1415   0.0000   0.0000

          k =-0.0833 0.7500 0.0833 (   690 PWs)   bands (ev):

   -81.6747 -47.5513 -47.5381 -47.5257   3.8442   4.4383   5.1984   5.3150
     5.4566   5.8024  12.2592  13.2119

     occupation numbers 
     1.0000   1.0000   1.0000   1.0000   1.0000   1.0014   0.5589   0.2693
     0.0715   0.0003   0.0000   0.0000

          k = 0.7500-0.0833 0.9167 (   695 PWs)   bands (ev):

   -81.6760 -47.5901 -47.5423 -47.5307   4.1569   4.4235   5.0529   5.3428
     5.4551   7.6137  10.1162  11.2136

     occupation numbers 
     1.0000   1.0000   1.0000   1.0000   1.0000   1.0011   0.9241   0.2158
     0.0727   0.0000   0.0000   0.0000

          k = 0.5833 0.0833 0.7500 (   698 PWs)   bands (ev):

   -81.6770 -47.5886 -47.5592 -47.5396   4.3544   4.4542   4.7519   5.1611
     5.3991   7.8930   8.9344  11.2495

     occupation numbers 
     1.0000   1.0000   1.0000   1.0000   1.0003   1.0018   1.0542   0.6619
     0.1301   0.0000   0.0000   0.0000

          k = 0.4167 0.2500 0.5833 (   694 PWs)   bands (ev):

   -81.6753 -47.5801 -47.5280 -47.5223   3.7636   4.7630   4.9029   4.9942
     5.4153   6.0538   9.0452  15.3702

     occupation numbers 
     1.0000   1.0000   1.0000   1.0000   1.0000   1.0580   1.0801   1.0169
     0.1108   0.0000   0.0000   0.0000

          k =-0.0833-0.9167 0.0833 (   698 PWs)   bands (ev):

   -81.6765 -47.5939 -47.5453 -47.5398   3.9948   4.3608   5.3582   5.3663
     5.4789   7.0116   9.9620  12.6754

     occupation numbers 
     1.0000   1.0000   1.0000   1.0000   1.0000   1.0004   0.1893   0.1764
     0.0554   0.0000   0.0000   0.0000

          k =-0.2500-0.7500-0.0833 (   690 PWs)   bands (ev):

   -81.6746 -47.5481 -47.5356 -47.5296   4.0372   4.4893   4.9038   5.2715
     5.4477   6.2860  11.3721  12.7278

     occupation numbers 
     1.0000   1.0000   1.0000   1.0000   1.0000   1.0031   1.0799   0.3669
     0.0789   0.0000   0.0000   0.0000

          k =-0.0833-0.5833 0.0833 (   692 PWs)   bands (ev):

   -81.6750 -47.5600 -47.5391 -47.5143   3.0168   4.5642   4.9748   5.1728
     5.3510   5.3721  13.9001  15.2736

     occupation numbers 
     1.0000   1.0000   1.0000   1.0000   1.0000   1.0088   1.0382   0.6298
     0.2015   0.1675   0.0000   0.0000

          k =-0.2500 0.2500 0.2500 (   691 PWs)   bands (ev):

   -81.6744 -47.5399 -47.5207 -47.5207   2.0159   4.7132   4.9674   4.9674
     5.3267   5.3267  13.0898  18.8319

     occupation numbers 
     1.0000   1.0000   1.0000   1.0000   1.0000   1.0411   1.0452   1.0452
     0.2458   0.2458   0.0000   0.0000

          k =-0.4167 0.4167 0.0833 (   688 PWs)   bands (ev):

   -81.6735 -47.5472 -47.5312 -47.4918   3.0118   4.7116   4.9525   5.0728
     5.2157   5.5991  11.9650  14.1016

     occupation numbers 
     1.0000   1.0000   1.0000   1.0000   1.0000   1.0406   1.0572   0.8834
     0.5113   0.0113   0.0000   0.0000

          k = 0.4167-0.4167 0.9167 (   690 PWs)   bands (ev):

   -81.6748 -47.5623 -47.5470 -47.5098   4.1793   4.6535   4.7580   5.0976
     5.3561   6.6941   9.7401  11.9456

     occupation numbers 
     1.0000   1.0000   1.0000   1.0000   1.0000   1.0242   1.0563   0.8270
     0.1928   0.0000   0.0000   0.0000

          k = 0.2500-0.2500 0.7500 (   697 PWs)   bands (ev):

   -81.6766 -47.5790 -47.5493 -47.5437   4.1168   4.4812   4.8308   5.1398
     5.4169   6.6135   9.6508  13.0926

     occupation numbers 
     1.0000   1.0000   1.0000   1.0000   1.0000   1.0028   1.0783   0.7197
     0.1091   0.0000   0.0000   0.0000

          k =-0.2500 0.5833 0.2500 (   692 PWs)   bands (ev):

   -81.6749 -47.5516 -47.5414 -47.5215   3.5022   4.6588   4.8668   5.0641
     5.4228   5.6941  10.4842  15.8874

     occupation numbers 
     1.0000   1.0000   1.0000   1.0000   1.0000   1.0255   1.0832   0.9017
     0.1027   0.0025   0.0000   0.0000

          k = 0.5833-0.2500 1.0833 (   695 PWs)   bands (ev):

   -81.6760 -47.5808 -47.5426 -47.5329   4.2655   4.5371   4.7306   5.1773
     5.3761   6.9334  10.0335  12.1526

     occupation numbers 
     1.0000   1.0000   1.0000   1.0000   1.0001   1.0062   1.0469   0.6174
     0.1615   0.0000   0.0000   0.0000

          k = 0.4167-0.0833 0.9167 (   700 PWs)   bands (ev):

   -81.6775 -47.5916 -47.5637 -47.5487   4.3438   4.4996   4.7230   5.1804
     5.4381   8.4863   9.5860  10.8286

     occupation numbers 
     1.0000   1.0000   1.0000   1.0000   1.0003   1.0037   1.0443   0.6086
     0.0875   0.0000   0.0000   0.0000

          k =-0.2500-1.0833 0.2500 (   698 PWs)   bands (ev):

   -81.6770 -47.5906 -47.5670 -47.5319   4.2751   4.3749   4.9083   5.2483
     5.4393   8.1009   9.1953  10.6962

     occupation numbers 
     1.0000   1.0000   1.0000   1.0000   1.0001   1.0005   1.0787   0.4248
     0.0864   0.0000   0.0000   0.0000

          k =-0.4167 0.4167 0.4167 (   685 PWs)   bands (ev):

   -81.6723 -47.5562 -47.4938 -47.4938   3.5036   4.9686   4.9686   5.2899
     5.5087   5.5087   8.7499  18.2301

     occupation numbers 
     1.0000   1.0000   1.0000   1.0000   1.0000   1.0440   1.0440   0.3237
     0.0387   0.0387   0.0000   0.0000

          k = 0.4167-0.4167 1.2500 (   694 PWs)   bands (ev):

   -81.6756 -47.5838 -47.5292 -47.5290   3.9692   4.7435   4.9440   4.9990
     5.4127   6.8213   8.0424  14.4167

     occupation numbers 
     1.0000   1.0000   1.0000   1.0000   1.0000   1.0513   1.0629   1.0108
     0.1138   0.0000   0.0000   0.0000

     the Fermi energy is     5.2578 ev

!    total energy              =    -246.91933566 Ry
     Harris-Foulkes estimate   =    -246.91933578 Ry
     estimated scf accuracy    <       0.00000021 Ry

     The total energy is the sum of the following terms:

     one-electron contribution =    -182.74084467 Ry
     hartree contribution      =      93.16637347 Ry
     xc contribution           =     -26.92974386 Ry
     ewald contribution        =    -130.41385461 Ry
     smearing contrib. (-TS)   =      -0.00126600 Ry

     convergence has been achieved in   7 iterations

     Writing output data file Fe_exc2.save

     init_run     :      0.46s CPU      0.46s WALL (       1 calls)
     electrons    :      2.58s CPU      2.61s WALL (       1 calls)

     Called by init_run:
     wfcinit      :      0.10s CPU      0.10s WALL (       1 calls)
     potinit      :      0.01s CPU      0.01s WALL (       1 calls)

     Called by electrons:
     c_bands      :      2.00s CPU      2.03s WALL (       8 calls)
     sum_band     :      0.43s CPU      0.43s WALL (       8 calls)
     v_of_rho     :      0.06s CPU      0.06s WALL (       8 calls)
     v_h          :      0.00s CPU      0.00s WALL (       8 calls)
     v_xc         :      0.05s CPU      0.05s WALL (       8 calls)
     newd         :      0.11s CPU      0.11s WALL (       8 calls)
     mix_rho      :      0.00s CPU      0.00s WALL (       8 calls)

     Called by c_bands:
     init_us_2    :      0.10s CPU      0.10s WALL (     476 calls)
     cegterg      :      1.87s CPU      1.89s WALL (     224 calls)

     Called by sum_band:
     sum_band:bec :      0.00s CPU      0.00s WALL (     224 calls)
     addusdens    :      0.10s CPU      0.10s WALL (       8 calls)

     Called by *egterg:
     h_psi        :      1.30s CPU      1.32s WALL (     734 calls)
     s_psi        :      0.10s CPU      0.10s WALL (     734 calls)
     g_psi        :      0.01s CPU      0.01s WALL (     482 calls)
     cdiaghg      :      0.12s CPU      0.12s WALL (     678 calls)
     cegterg:over :      0.17s CPU      0.17s WALL (     482 calls)
     cegterg:upda :      0.10s CPU      0.10s WALL (     482 calls)
     cegterg:last :      0.07s CPU      0.07s WALL (     224 calls)

     Called by h_psi:
     h_psi:vloc   :      1.08s CPU      1.09s WALL (     734 calls)
     h_psi:vnl    :      0.21s CPU      0.22s WALL (     734 calls)
     add_vuspsi   :      0.10s CPU      0.10s WALL (     734 calls)

     General routines
     calbec       :      0.15s CPU      0.16s WALL (     958 calls)
     fft          :      0.01s CPU      0.01s WALL (     106 calls)
     fftw         :      1.09s CPU      1.10s WALL (   15922 calls)
     davcio       :      0.00s CPU      0.00s WALL (      28 calls)

     Parallel routines
     fft_scatter  :      0.11s CPU      0.11s WALL (   16028 calls)

     PWSCF        :     3.27s CPU         3.31s WALL


   This run was terminated on:   7:17:16  30Apr2020            

=------------------------------------------------------------------------------=
   JOB DONE.
=------------------------------------------------------------------------------=
