
     Program PWSCF v.5.1 starts on 18Feb2020 at 21:17: 0 

     This program is part of the open-source Quantum ESPRESSO suite
     for quantum simulation of materials; please cite
         "P. Giannozzi et al., J. Phys.:Condens. Matter 21 395502 (2009);
          URL http://www.quantum-espresso.org", 
     in publications or presentations arising from this work. More details at
     http://www.quantum-espresso.org/quote

     Parallel version (MPI), running on     1 processors
     Waiting for input...
     Reading input from standard input

     Current dimensions of program PWSCF are:
     Max number of different atomic species (ntypx) = 10
     Max number of k-points (npk) =  40000
     Max angular momentum in pseudopotentials (lmaxx) =  3

     Subspace diagonalization in iterative solution of the eigenvalue problem:
     a serial algorithm will be used


     G-vector sticks info
     --------------------
     sticks:   dense  smooth     PW     G-vecs:    dense   smooth      PW
     Sum         151     151     61                 1243     1243     331



     bravais-lattice index     =            2
     lattice parameter (alat)  =       5.4168  a.u.
     unit-cell volume          =      39.7346 (a.u.)^3
     number of atoms/cell      =            1
     number of atomic types    =            1
     number of electrons       =        16.00
     number of Kohn-Sham states=           12
     kinetic-energy cutoff     =      37.0000  Ry
     charge density cutoff     =     148.0000  Ry
     convergence threshold     =      1.0E-06
     mixing beta               =       0.7000
     number of iterations used =            8  plain     mixing
     Exchange-correlation      = PBESOL ( 1  4 10  8 0)

     celldm(1)=   5.416800  celldm(2)=   0.000000  celldm(3)=   0.000000
     celldm(4)=   0.000000  celldm(5)=   0.000000  celldm(6)=   0.000000

     crystal axes: (cart. coord. in units of alat)
               a(1) = (  -0.500000   0.000000   0.500000 )  
               a(2) = (   0.000000   0.500000   0.500000 )  
               a(3) = (  -0.500000   0.500000   0.000000 )  

     reciprocal axes: (cart. coord. in units 2 pi/alat)
               b(1) = ( -1.000000 -1.000000  1.000000 )  
               b(2) = (  1.000000  1.000000  1.000000 )  
               b(3) = ( -1.000000  1.000000 -1.000000 )  


     PseudoPot. # 1 for Fe read from file:
     ../pseudo/Fe.pbesol-spn-rrkjus_psl.1.0.0.UPF
     MD5 check sum: 484df5943d2d2fc40c67f98a6337a9e2
     Pseudo is Ultrasoft + core correction, Zval = 16.0
     Generated using "atomic" code by A. Dal Corso  v.6.3
     Using radial grid of 1191 points,  6 beta functions with: 
                l(1) =   0
                l(2) =   0
                l(3) =   1
                l(4) =   1
                l(5) =   2
                l(6) =   2
     Q(r) pseudized with 0 coefficients 


     atomic species   valence    mass     pseudopotential
        Fe            16.00    55.84500     Fe( 1.00)

     48 Sym. Ops., with inversion, found


                                    s                        frac. trans.

      isym =  1     identity                                     

 cryst.   s( 1) = (     1          0          0      )
                  (     0          1          0      )
                  (     0          0          1      )

 cart.    s( 1) = (  1.0000000  0.0000000  0.0000000 )
                  (  0.0000000  1.0000000  0.0000000 )
                  (  0.0000000  0.0000000  1.0000000 )


      isym =  2     180 deg rotation - cart. axis [0,0,1]        

 cryst.   s( 2) = (     0          1         -1      )
                  (     1          0         -1      )
                  (     0          0         -1      )

 cart.    s( 2) = ( -1.0000000  0.0000000  0.0000000 )
                  (  0.0000000 -1.0000000  0.0000000 )
                  (  0.0000000  0.0000000  1.0000000 )


      isym =  3     180 deg rotation - cart. axis [0,1,0]        

 cryst.   s( 3) = (    -1          0          0      )
                  (    -1          0          1      )
                  (    -1          1          0      )

 cart.    s( 3) = ( -1.0000000  0.0000000  0.0000000 )
                  (  0.0000000  1.0000000  0.0000000 )
                  (  0.0000000  0.0000000 -1.0000000 )


      isym =  4     180 deg rotation - cart. axis [1,0,0]        

 cryst.   s( 4) = (     0         -1          1      )
                  (     0         -1          0      )
                  (     1         -1          0      )

 cart.    s( 4) = (  1.0000000  0.0000000  0.0000000 )
                  (  0.0000000 -1.0000000  0.0000000 )
                  (  0.0000000  0.0000000 -1.0000000 )


      isym =  5     180 deg rotation - cart. axis [1,1,0]        

 cryst.   s( 5) = (     0         -1          0      )
                  (    -1          0          0      )
                  (     0          0         -1      )

 cart.    s( 5) = (  0.0000000  1.0000000  0.0000000 )
                  (  1.0000000  0.0000000  0.0000000 )
                  (  0.0000000  0.0000000 -1.0000000 )


      isym =  6     180 deg rotation - cart. axis [1,-1,0]       

 cryst.   s( 6) = (    -1          0          1      )
                  (     0         -1          1      )
                  (     0          0          1      )

 cart.    s( 6) = (  0.0000000 -1.0000000  0.0000000 )
                  ( -1.0000000  0.0000000  0.0000000 )
                  (  0.0000000  0.0000000 -1.0000000 )


      isym =  7      90 deg rotation - cart. axis [0,0,-1]       

 cryst.   s( 7) = (     0          1          0      )
                  (     0          1         -1      )
                  (    -1          1          0      )

 cart.    s( 7) = (  0.0000000  1.0000000  0.0000000 )
                  ( -1.0000000  0.0000000  0.0000000 )
                  (  0.0000000  0.0000000  1.0000000 )


      isym =  8      90 deg rotation - cart. axis [0,0,1]        

 cryst.   s( 8) = (     1          0         -1      )
                  (     1          0          0      )
                  (     1         -1          0      )

 cart.    s( 8) = (  0.0000000 -1.0000000  0.0000000 )
                  (  1.0000000  0.0000000  0.0000000 )
                  (  0.0000000  0.0000000  1.0000000 )


      isym =  9     180 deg rotation - cart. axis [1,0,1]        

 cryst.   s( 9) = (    -1          0          0      )
                  (     0          0         -1      )
                  (     0         -1          0      )

 cart.    s( 9) = (  0.0000000  0.0000000  1.0000000 )
                  (  0.0000000 -1.0000000  0.0000000 )
                  (  1.0000000  0.0000000  0.0000000 )


      isym = 10     180 deg rotation - cart. axis [-1,0,1]       

 cryst.   s(10) = (     1          0          0      )
                  (     1         -1          0      )
                  (     1          0         -1      )

 cart.    s(10) = (  0.0000000  0.0000000 -1.0000000 )
                  (  0.0000000 -1.0000000  0.0000000 )
                  ( -1.0000000  0.0000000  0.0000000 )


      isym = 11      90 deg rotation - cart. axis [0,1,0]        

 cryst.   s(11) = (     0          1         -1      )
                  (    -1          1          0      )
                  (     0          1          0      )

 cart.    s(11) = (  0.0000000  0.0000000  1.0000000 )
                  (  0.0000000  1.0000000  0.0000000 )
                  ( -1.0000000  0.0000000  0.0000000 )


      isym = 12      90 deg rotation - cart. axis [0,-1,0]       

 cryst.   s(12) = (     0         -1          1      )
                  (     0          0          1      )
                  (    -1          0          1      )

 cart.    s(12) = (  0.0000000  0.0000000 -1.0000000 )
                  (  0.0000000  1.0000000  0.0000000 )
                  (  1.0000000  0.0000000  0.0000000 )


      isym = 13     180 deg rotation - cart. axis [0,1,1]        

 cryst.   s(13) = (    -1          1          0      )
                  (     0          1          0      )
                  (     0          1         -1      )

 cart.    s(13) = ( -1.0000000  0.0000000  0.0000000 )
                  (  0.0000000  0.0000000  1.0000000 )
                  (  0.0000000  1.0000000  0.0000000 )


      isym = 14     180 deg rotation - cart. axis [0,1,-1]       

 cryst.   s(14) = (     0          0         -1      )
                  (     0         -1          0      )
                  (    -1          0          0      )

 cart.    s(14) = ( -1.0000000  0.0000000  0.0000000 )
                  (  0.0000000  0.0000000 -1.0000000 )
                  (  0.0000000 -1.0000000  0.0000000 )


      isym = 15      90 deg rotation - cart. axis [-1,0,0]       

 cryst.   s(15) = (     0          0          1      )
                  (    -1          0          1      )
                  (     0         -1          1      )

 cart.    s(15) = (  1.0000000  0.0000000  0.0000000 )
                  (  0.0000000  0.0000000  1.0000000 )
                  (  0.0000000 -1.0000000  0.0000000 )


      isym = 16      90 deg rotation - cart. axis [1,0,0]        

 cryst.   s(16) = (     1         -1          0      )
                  (     1          0         -1      )
                  (     1          0          0      )

 cart.    s(16) = (  1.0000000  0.0000000  0.0000000 )
                  (  0.0000000  0.0000000 -1.0000000 )
                  (  0.0000000  1.0000000  0.0000000 )


      isym = 17     120 deg rotation - cart. axis [-1,-1,-1]     

 cryst.   s(17) = (    -1          0          1      )
                  (    -1          1          0      )
                  (    -1          0          0      )

 cart.    s(17) = (  0.0000000  1.0000000  0.0000000 )
                  (  0.0000000  0.0000000  1.0000000 )
                  (  1.0000000  0.0000000  0.0000000 )


      isym = 18     120 deg rotation - cart. axis [-1,1,1]       

 cryst.   s(18) = (     0          1          0      )
                  (     0          0          1      )
                  (     1          0          0      )

 cart.    s(18) = (  0.0000000 -1.0000000  0.0000000 )
                  (  0.0000000  0.0000000  1.0000000 )
                  ( -1.0000000  0.0000000  0.0000000 )


      isym = 19     120 deg rotation - cart. axis [1,1,-1]       

 cryst.   s(19) = (     1          0         -1      )
                  (     0          0         -1      )
                  (     0          1         -1      )

 cart.    s(19) = (  0.0000000  1.0000000  0.0000000 )
                  (  0.0000000  0.0000000 -1.0000000 )
                  ( -1.0000000  0.0000000  0.0000000 )


      isym = 20     120 deg rotation - cart. axis [1,-1,1]       

 cryst.   s(20) = (     0         -1          0      )
                  (     1         -1          0      )
                  (     0         -1          1      )

 cart.    s(20) = (  0.0000000 -1.0000000  0.0000000 )
                  (  0.0000000  0.0000000 -1.0000000 )
                  (  1.0000000  0.0000000  0.0000000 )


      isym = 21     120 deg rotation - cart. axis [1,1,1]        

 cryst.   s(21) = (     0          0         -1      )
                  (     0          1         -1      )
                  (     1          0         -1      )

 cart.    s(21) = (  0.0000000  0.0000000  1.0000000 )
                  (  1.0000000  0.0000000  0.0000000 )
                  (  0.0000000  1.0000000  0.0000000 )


      isym = 22     120 deg rotation - cart. axis [-1,1,-1]      

 cryst.   s(22) = (    -1          1          0      )
                  (    -1          0          0      )
                  (    -1          0          1      )

 cart.    s(22) = (  0.0000000  0.0000000  1.0000000 )
                  ( -1.0000000  0.0000000  0.0000000 )
                  (  0.0000000 -1.0000000  0.0000000 )


      isym = 23     120 deg rotation - cart. axis [1,-1,-1]      

 cryst.   s(23) = (     0          0          1      )
                  (     1          0          0      )
                  (     0          1          0      )

 cart.    s(23) = (  0.0000000  0.0000000 -1.0000000 )
                  ( -1.0000000  0.0000000  0.0000000 )
                  (  0.0000000  1.0000000  0.0000000 )


      isym = 24     120 deg rotation - cart. axis [-1,-1,1]      

 cryst.   s(24) = (     1         -1          0      )
                  (     0         -1          1      )
                  (     0         -1          0      )

 cart.    s(24) = (  0.0000000  0.0000000 -1.0000000 )
                  (  1.0000000  0.0000000  0.0000000 )
                  (  0.0000000 -1.0000000  0.0000000 )


      isym = 25     inversion                                    

 cryst.   s(25) = (    -1          0          0      )
                  (     0         -1          0      )
                  (     0          0         -1      )

 cart.    s(25) = ( -1.0000000  0.0000000  0.0000000 )
                  (  0.0000000 -1.0000000  0.0000000 )
                  (  0.0000000  0.0000000 -1.0000000 )


      isym = 26     inv. 180 deg rotation - cart. axis [0,0,1]   

 cryst.   s(26) = (     0         -1          1      )
                  (    -1          0          1      )
                  (     0          0          1      )

 cart.    s(26) = (  1.0000000  0.0000000  0.0000000 )
                  (  0.0000000  1.0000000  0.0000000 )
                  (  0.0000000  0.0000000 -1.0000000 )


      isym = 27     inv. 180 deg rotation - cart. axis [0,1,0]   

 cryst.   s(27) = (     1          0          0      )
                  (     1          0         -1      )
                  (     1         -1          0      )

 cart.    s(27) = (  1.0000000  0.0000000  0.0000000 )
                  (  0.0000000 -1.0000000  0.0000000 )
                  (  0.0000000  0.0000000  1.0000000 )


      isym = 28     inv. 180 deg rotation - cart. axis [1,0,0]   

 cryst.   s(28) = (     0          1         -1      )
                  (     0          1          0      )
                  (    -1          1          0      )

 cart.    s(28) = ( -1.0000000  0.0000000  0.0000000 )
                  (  0.0000000  1.0000000  0.0000000 )
                  (  0.0000000  0.0000000  1.0000000 )


      isym = 29     inv. 180 deg rotation - cart. axis [1,1,0]   

 cryst.   s(29) = (     0          1          0      )
                  (     1          0          0      )
                  (     0          0          1      )

 cart.    s(29) = (  0.0000000 -1.0000000  0.0000000 )
                  ( -1.0000000  0.0000000  0.0000000 )
                  (  0.0000000  0.0000000  1.0000000 )


      isym = 30     inv. 180 deg rotation - cart. axis [1,-1,0]  

 cryst.   s(30) = (     1          0         -1      )
                  (     0          1         -1      )
                  (     0          0         -1      )

 cart.    s(30) = (  0.0000000  1.0000000  0.0000000 )
                  (  1.0000000  0.0000000  0.0000000 )
                  (  0.0000000  0.0000000  1.0000000 )


      isym = 31     inv.  90 deg rotation - cart. axis [0,0,-1]  

 cryst.   s(31) = (     0         -1          0      )
                  (     0         -1          1      )
                  (     1         -1          0      )

 cart.    s(31) = (  0.0000000 -1.0000000  0.0000000 )
                  (  1.0000000  0.0000000  0.0000000 )
                  (  0.0000000  0.0000000 -1.0000000 )


      isym = 32     inv.  90 deg rotation - cart. axis [0,0,1]   

 cryst.   s(32) = (    -1          0          1      )
                  (    -1          0          0      )
                  (    -1          1          0      )

 cart.    s(32) = (  0.0000000  1.0000000  0.0000000 )
                  ( -1.0000000  0.0000000  0.0000000 )
                  (  0.0000000  0.0000000 -1.0000000 )


      isym = 33     inv. 180 deg rotation - cart. axis [1,0,1]   

 cryst.   s(33) = (     1          0          0      )
                  (     0          0          1      )
                  (     0          1          0      )

 cart.    s(33) = (  0.0000000  0.0000000 -1.0000000 )
                  (  0.0000000  1.0000000  0.0000000 )
                  ( -1.0000000  0.0000000  0.0000000 )


      isym = 34     inv. 180 deg rotation - cart. axis [-1,0,1]  

 cryst.   s(34) = (    -1          0          0      )
                  (    -1          1          0      )
                  (    -1          0          1      )

 cart.    s(34) = (  0.0000000  0.0000000  1.0000000 )
                  (  0.0000000  1.0000000  0.0000000 )
                  (  1.0000000  0.0000000  0.0000000 )


      isym = 35     inv.  90 deg rotation - cart. axis [0,1,0]   

 cryst.   s(35) = (     0         -1          1      )
                  (     1         -1          0      )
                  (     0         -1          0      )

 cart.    s(35) = (  0.0000000  0.0000000 -1.0000000 )
                  (  0.0000000 -1.0000000  0.0000000 )
                  (  1.0000000  0.0000000  0.0000000 )


      isym = 36     inv.  90 deg rotation - cart. axis [0,-1,0]  

 cryst.   s(36) = (     0          1         -1      )
                  (     0          0         -1      )
                  (     1          0         -1      )

 cart.    s(36) = (  0.0000000  0.0000000  1.0000000 )
                  (  0.0000000 -1.0000000  0.0000000 )
                  ( -1.0000000  0.0000000  0.0000000 )


      isym = 37     inv. 180 deg rotation - cart. axis [0,1,1]   

 cryst.   s(37) = (     1         -1          0      )
                  (     0         -1          0      )
                  (     0         -1          1      )

 cart.    s(37) = (  1.0000000  0.0000000  0.0000000 )
                  (  0.0000000  0.0000000 -1.0000000 )
                  (  0.0000000 -1.0000000  0.0000000 )


      isym = 38     inv. 180 deg rotation - cart. axis [0,1,-1]  

 cryst.   s(38) = (     0          0          1      )
                  (     0          1          0      )
                  (     1          0          0      )

 cart.    s(38) = (  1.0000000  0.0000000  0.0000000 )
                  (  0.0000000  0.0000000  1.0000000 )
                  (  0.0000000  1.0000000  0.0000000 )


      isym = 39     inv.  90 deg rotation - cart. axis [-1,0,0]  

 cryst.   s(39) = (     0          0         -1      )
                  (     1          0         -1      )
                  (     0          1         -1      )

 cart.    s(39) = ( -1.0000000  0.0000000  0.0000000 )
                  (  0.0000000  0.0000000 -1.0000000 )
                  (  0.0000000  1.0000000  0.0000000 )


      isym = 40     inv.  90 deg rotation - cart. axis [1,0,0]   

 cryst.   s(40) = (    -1          1          0      )
                  (    -1          0          1      )
                  (    -1          0          0      )

 cart.    s(40) = ( -1.0000000  0.0000000  0.0000000 )
                  (  0.0000000  0.0000000  1.0000000 )
                  (  0.0000000 -1.0000000  0.0000000 )


      isym = 41     inv. 120 deg rotation - cart. axis [-1,-1,-1]

 cryst.   s(41) = (     1          0         -1      )
                  (     1         -1          0      )
                  (     1          0          0      )

 cart.    s(41) = (  0.0000000 -1.0000000  0.0000000 )
                  (  0.0000000  0.0000000 -1.0000000 )
                  ( -1.0000000  0.0000000  0.0000000 )


      isym = 42     inv. 120 deg rotation - cart. axis [-1,1,1]  

 cryst.   s(42) = (     0         -1          0      )
                  (     0          0         -1      )
                  (    -1          0          0      )

 cart.    s(42) = (  0.0000000  1.0000000  0.0000000 )
                  (  0.0000000  0.0000000 -1.0000000 )
                  (  1.0000000  0.0000000  0.0000000 )


      isym = 43     inv. 120 deg rotation - cart. axis [1,1,-1]  

 cryst.   s(43) = (    -1          0          1      )
                  (     0          0          1      )
                  (     0         -1          1      )

 cart.    s(43) = (  0.0000000 -1.0000000  0.0000000 )
                  (  0.0000000  0.0000000  1.0000000 )
                  (  1.0000000  0.0000000  0.0000000 )


      isym = 44     inv. 120 deg rotation - cart. axis [1,-1,1]  

 cryst.   s(44) = (     0          1          0      )
                  (    -1          1          0      )
                  (     0          1         -1      )

 cart.    s(44) = (  0.0000000  1.0000000  0.0000000 )
                  (  0.0000000  0.0000000  1.0000000 )
                  ( -1.0000000  0.0000000  0.0000000 )


      isym = 45     inv. 120 deg rotation - cart. axis [1,1,1]   

 cryst.   s(45) = (     0          0          1      )
                  (     0         -1          1      )
                  (    -1          0          1      )

 cart.    s(45) = (  0.0000000  0.0000000 -1.0000000 )
                  ( -1.0000000  0.0000000  0.0000000 )
                  (  0.0000000 -1.0000000  0.0000000 )


      isym = 46     inv. 120 deg rotation - cart. axis [-1,1,-1] 

 cryst.   s(46) = (     1         -1          0      )
                  (     1          0          0      )
                  (     1          0         -1      )

 cart.    s(46) = (  0.0000000  0.0000000 -1.0000000 )
                  (  1.0000000  0.0000000  0.0000000 )
                  (  0.0000000  1.0000000  0.0000000 )


      isym = 47     inv. 120 deg rotation - cart. axis [1,-1,-1] 

 cryst.   s(47) = (     0          0         -1      )
                  (    -1          0          0      )
                  (     0         -1          0      )

 cart.    s(47) = (  0.0000000  0.0000000  1.0000000 )
                  (  1.0000000  0.0000000  0.0000000 )
                  (  0.0000000 -1.0000000  0.0000000 )


      isym = 48     inv. 120 deg rotation - cart. axis [-1,-1,1] 

 cryst.   s(48) = (    -1          1          0      )
                  (     0          1         -1      )
                  (     0          1          0      )

 cart.    s(48) = (  0.0000000  0.0000000  1.0000000 )
                  ( -1.0000000  0.0000000  0.0000000 )
                  (  0.0000000  1.0000000  0.0000000 )


     point group O_h (m-3m) 
     there are 10 classes
     the character table:

       E     8C3   6C2'  6C4   3C2   i     6S4   8S6   3s_h  6s_d 
A_1g   1.00  1.00  1.00  1.00  1.00  1.00  1.00  1.00  1.00  1.00
A_2g   1.00  1.00 -1.00 -1.00  1.00  1.00 -1.00  1.00  1.00 -1.00
E_g    2.00 -1.00  0.00  0.00  2.00  2.00  0.00 -1.00  2.00  0.00
T_1g   3.00  0.00 -1.00  1.00 -1.00  3.00  1.00  0.00 -1.00 -1.00
T_2g   3.00  0.00  1.00 -1.00 -1.00  3.00 -1.00  0.00 -1.00  1.00
A_1u   1.00  1.00  1.00  1.00  1.00 -1.00 -1.00 -1.00 -1.00 -1.00
A_2u   1.00  1.00 -1.00 -1.00  1.00 -1.00  1.00 -1.00 -1.00  1.00
E_u    2.00 -1.00  0.00  0.00  2.00 -2.00  0.00  1.00 -2.00  0.00
T_1u   3.00  0.00 -1.00  1.00 -1.00 -3.00 -1.00  0.00  1.00  1.00
T_2u   3.00  0.00  1.00 -1.00 -1.00 -3.00  1.00  0.00  1.00 -1.00

     the symmetry operations in each class:
     E        1
     3C2      2    4    3
     6C2'     5    6   14   13   10    9
     6C4      7    8   15   16   12   11
     8C3     17   19   20   18   24   21   22   23
     i       25
     3s_h    26   28   27
     6s_d    29   30   38   37   34   33
     6S4     31   32   39   40   36   35
     8S6     41   43   44   42   48   45   46   47

   Cartesian axes

     site n.     atom                  positions (alat units)
         1           Fe  tau(   1) = (   0.0000000   0.0000000   0.0000000  )

   Crystallographic axes

     site n.     atom                  positions (cryst. coord.)
         1           Fe  tau(   1) = (  0.0000000  0.0000000  0.0000000  )

     number of k points=   408  Marzari-Vanderbilt smearing, width (Ry)=  0.0200
                       cart. coord. in units 2pi/alat
        k(    1) = (  -0.0312500   0.0312500   0.0312500), wk =   0.0009766
        k(    2) = (  -0.0937500   0.0937500  -0.0312500), wk =   0.0029297
        k(    3) = (  -0.1562500   0.1562500  -0.0937500), wk =   0.0029297
        k(    4) = (  -0.2187500   0.2187500  -0.1562500), wk =   0.0029297
        k(    5) = (  -0.2812500   0.2812500  -0.2187500), wk =   0.0029297
        k(    6) = (  -0.3437500   0.3437500  -0.2812500), wk =   0.0029297
        k(    7) = (  -0.4062500   0.4062500  -0.3437500), wk =   0.0029297
        k(    8) = (  -0.4687500   0.4687500  -0.4062500), wk =   0.0029297
        k(    9) = (   0.4687500  -0.4687500   0.5312500), wk =   0.0029297
        k(   10) = (   0.4062500  -0.4062500   0.4687500), wk =   0.0029297
        k(   11) = (   0.3437500  -0.3437500   0.4062500), wk =   0.0029297
        k(   12) = (   0.2812500  -0.2812500   0.3437500), wk =   0.0029297
        k(   13) = (   0.2187500  -0.2187500   0.2812500), wk =   0.0029297
        k(   14) = (   0.1562500  -0.1562500   0.2187500), wk =   0.0029297
        k(   15) = (   0.0937500  -0.0937500   0.1562500), wk =   0.0029297
        k(   16) = (   0.0312500  -0.0312500   0.0937500), wk =   0.0029297
        k(   17) = (  -0.0312500   0.1562500   0.0312500), wk =   0.0029297
        k(   18) = (  -0.0937500   0.2187500  -0.0312500), wk =   0.0058594
        k(   19) = (  -0.1562500   0.2812500  -0.0937500), wk =   0.0058594
        k(   20) = (  -0.2187500   0.3437500  -0.1562500), wk =   0.0058594
        k(   21) = (  -0.2812500   0.4062500  -0.2187500), wk =   0.0058594
        k(   22) = (  -0.3437500   0.4687500  -0.2812500), wk =   0.0058594
        k(   23) = (  -0.4062500   0.5312500  -0.3437500), wk =   0.0058594
        k(   24) = (   0.5312500  -0.4062500   0.5937500), wk =   0.0058594
        k(   25) = (   0.4687500  -0.3437500   0.5312500), wk =   0.0058594
        k(   26) = (   0.4062500  -0.2812500   0.4687500), wk =   0.0058594
        k(   27) = (   0.3437500  -0.2187500   0.4062500), wk =   0.0058594
        k(   28) = (   0.2812500  -0.1562500   0.3437500), wk =   0.0058594
        k(   29) = (   0.2187500  -0.0937500   0.2812500), wk =   0.0058594
        k(   30) = (   0.1562500  -0.0312500   0.2187500), wk =   0.0058594
        k(   31) = (   0.0937500   0.0312500   0.1562500), wk =   0.0058594
        k(   32) = (  -0.0312500   0.2812500   0.0312500), wk =   0.0029297
        k(   33) = (  -0.0937500   0.3437500  -0.0312500), wk =   0.0058594
        k(   34) = (  -0.1562500   0.4062500  -0.0937500), wk =   0.0058594
        k(   35) = (  -0.2187500   0.4687500  -0.1562500), wk =   0.0058594
        k(   36) = (  -0.2812500   0.5312500  -0.2187500), wk =   0.0058594
        k(   37) = (  -0.3437500   0.5937500  -0.2812500), wk =   0.0058594
        k(   38) = (   0.5937500  -0.3437500   0.6562500), wk =   0.0058594
        k(   39) = (   0.5312500  -0.2812500   0.5937500), wk =   0.0058594
        k(   40) = (   0.4687500  -0.2187500   0.5312500), wk =   0.0058594
        k(   41) = (   0.4062500  -0.1562500   0.4687500), wk =   0.0058594
        k(   42) = (   0.3437500  -0.0937500   0.4062500), wk =   0.0058594
        k(   43) = (   0.2812500  -0.0312500   0.3437500), wk =   0.0058594
        k(   44) = (   0.2187500   0.0312500   0.2812500), wk =   0.0058594
        k(   45) = (   0.1562500   0.0937500   0.2187500), wk =   0.0058594
        k(   46) = (  -0.0312500   0.4062500   0.0312500), wk =   0.0029297
        k(   47) = (  -0.0937500   0.4687500  -0.0312500), wk =   0.0058594
        k(   48) = (  -0.1562500   0.5312500  -0.0937500), wk =   0.0058594
        k(   49) = (  -0.2187500   0.5937500  -0.1562500), wk =   0.0058594
        k(   50) = (  -0.2812500   0.6562500  -0.2187500), wk =   0.0058594
        k(   51) = (   0.6562500  -0.2812500   0.7187500), wk =   0.0058594
        k(   52) = (   0.5937500  -0.2187500   0.6562500), wk =   0.0058594
        k(   53) = (   0.5312500  -0.1562500   0.5937500), wk =   0.0058594
        k(   54) = (   0.4687500  -0.0937500   0.5312500), wk =   0.0058594
        k(   55) = (   0.4062500  -0.0312500   0.4687500), wk =   0.0058594
        k(   56) = (   0.3437500   0.0312500   0.4062500), wk =   0.0058594
        k(   57) = (   0.2812500   0.0937500   0.3437500), wk =   0.0058594
        k(   58) = (   0.2187500   0.1562500   0.2812500), wk =   0.0058594
        k(   59) = (  -0.0312500   0.5312500   0.0312500), wk =   0.0029297
        k(   60) = (  -0.0937500   0.5937500  -0.0312500), wk =   0.0058594
        k(   61) = (  -0.1562500   0.6562500  -0.0937500), wk =   0.0058594
        k(   62) = (  -0.2187500   0.7187500  -0.1562500), wk =   0.0058594
        k(   63) = (   0.7187500  -0.2187500   0.7812500), wk =   0.0058594
        k(   64) = (   0.6562500  -0.1562500   0.7187500), wk =   0.0058594
        k(   65) = (   0.5937500  -0.0937500   0.6562500), wk =   0.0058594
        k(   66) = (   0.5312500  -0.0312500   0.5937500), wk =   0.0058594
        k(   67) = (   0.4687500   0.0312500   0.5312500), wk =   0.0058594
        k(   68) = (   0.4062500   0.0937500   0.4687500), wk =   0.0058594
        k(   69) = (   0.3437500   0.1562500   0.4062500), wk =   0.0058594
        k(   70) = (   0.2812500   0.2187500   0.3437500), wk =   0.0058594
        k(   71) = (  -0.0312500   0.6562500   0.0312500), wk =   0.0029297
        k(   72) = (  -0.0937500   0.7187500  -0.0312500), wk =   0.0058594
        k(   73) = (  -0.1562500   0.7812500  -0.0937500), wk =   0.0058594
        k(   74) = (   0.7812500  -0.1562500   0.8437500), wk =   0.0058594
        k(   75) = (   0.7187500  -0.0937500   0.7812500), wk =   0.0058594
        k(   76) = (   0.6562500  -0.0312500   0.7187500), wk =   0.0058594
        k(   77) = (   0.5937500   0.0312500   0.6562500), wk =   0.0058594
        k(   78) = (   0.5312500   0.0937500   0.5937500), wk =   0.0058594
        k(   79) = (   0.4687500   0.1562500   0.5312500), wk =   0.0058594
        k(   80) = (   0.4062500   0.2187500   0.4687500), wk =   0.0058594
        k(   81) = (   0.3437500   0.2812500   0.4062500), wk =   0.0058594
        k(   82) = (  -0.0312500   0.7812500   0.0312500), wk =   0.0029297
        k(   83) = (  -0.0937500   0.8437500  -0.0312500), wk =   0.0058594
        k(   84) = (   0.8437500  -0.0937500   0.9062500), wk =   0.0058594
        k(   85) = (   0.7812500  -0.0312500   0.8437500), wk =   0.0058594
        k(   86) = (   0.7187500   0.0312500   0.7812500), wk =   0.0058594
        k(   87) = (   0.6562500   0.0937500   0.7187500), wk =   0.0058594
        k(   88) = (   0.5937500   0.1562500   0.6562500), wk =   0.0058594
        k(   89) = (   0.5312500   0.2187500   0.5937500), wk =   0.0058594
        k(   90) = (   0.4687500   0.2812500   0.5312500), wk =   0.0058594
        k(   91) = (   0.4062500   0.3437500   0.4687500), wk =   0.0058594
        k(   92) = (  -0.0312500   0.9062500   0.0312500), wk =   0.0029297
        k(   93) = (   0.9062500  -0.0312500   0.9687500), wk =   0.0058594
        k(   94) = (   0.8437500   0.0312500   0.9062500), wk =   0.0058594
        k(   95) = (   0.7812500   0.0937500   0.8437500), wk =   0.0058594
        k(   96) = (   0.7187500   0.1562500   0.7812500), wk =   0.0058594
        k(   97) = (   0.6562500   0.2187500   0.7187500), wk =   0.0058594
        k(   98) = (   0.5937500   0.2812500   0.6562500), wk =   0.0058594
        k(   99) = (   0.5312500   0.3437500   0.5937500), wk =   0.0058594
        k(  100) = (   0.4687500   0.4062500   0.5312500), wk =   0.0058594
        k(  101) = (  -0.0312500  -0.9687500   0.0312500), wk =   0.0029297
        k(  102) = (  -0.0937500  -0.9062500  -0.0312500), wk =   0.0058594
        k(  103) = (  -0.1562500  -0.8437500  -0.0937500), wk =   0.0058594
        k(  104) = (  -0.2187500  -0.7812500  -0.1562500), wk =   0.0058594
        k(  105) = (  -0.2812500  -0.7187500  -0.2187500), wk =   0.0058594
        k(  106) = (  -0.3437500  -0.6562500  -0.2812500), wk =   0.0058594
        k(  107) = (  -0.4062500  -0.5937500  -0.3437500), wk =   0.0058594
        k(  108) = (  -0.0312500  -0.8437500   0.0312500), wk =   0.0029297
        k(  109) = (  -0.0937500  -0.7812500  -0.0312500), wk =   0.0058594
        k(  110) = (  -0.1562500  -0.7187500  -0.0937500), wk =   0.0058594
        k(  111) = (  -0.2187500  -0.6562500  -0.1562500), wk =   0.0058594
        k(  112) = (  -0.2812500  -0.5937500  -0.2187500), wk =   0.0058594
        k(  113) = (  -0.3437500  -0.5312500  -0.2812500), wk =   0.0058594
        k(  114) = (  -0.0312500  -0.7187500   0.0312500), wk =   0.0029297
        k(  115) = (  -0.0937500  -0.6562500  -0.0312500), wk =   0.0058594
        k(  116) = (  -0.1562500  -0.5937500  -0.0937500), wk =   0.0058594
        k(  117) = (  -0.2187500  -0.5312500  -0.1562500), wk =   0.0058594
        k(  118) = (  -0.2812500  -0.4687500  -0.2187500), wk =   0.0058594
        k(  119) = (  -0.0312500  -0.5937500   0.0312500), wk =   0.0029297
        k(  120) = (  -0.0937500  -0.5312500  -0.0312500), wk =   0.0058594
        k(  121) = (  -0.1562500  -0.4687500  -0.0937500), wk =   0.0058594
        k(  122) = (  -0.2187500  -0.4062500  -0.1562500), wk =   0.0058594
        k(  123) = (  -0.0312500  -0.4687500   0.0312500), wk =   0.0029297
        k(  124) = (  -0.0937500  -0.4062500  -0.0312500), wk =   0.0058594
        k(  125) = (  -0.1562500  -0.3437500  -0.0937500), wk =   0.0058594
        k(  126) = (  -0.0312500  -0.3437500   0.0312500), wk =   0.0029297
        k(  127) = (  -0.0937500  -0.2812500  -0.0312500), wk =   0.0058594
        k(  128) = (  -0.0312500  -0.2187500   0.0312500), wk =   0.0029297
        k(  129) = (  -0.0937500   0.0937500   0.0937500), wk =   0.0009766
        k(  130) = (  -0.1562500   0.1562500   0.0312500), wk =   0.0029297
        k(  131) = (  -0.2187500   0.2187500  -0.0312500), wk =   0.0029297
        k(  132) = (  -0.2812500   0.2812500  -0.0937500), wk =   0.0029297
        k(  133) = (  -0.3437500   0.3437500  -0.1562500), wk =   0.0029297
        k(  134) = (  -0.4062500   0.4062500  -0.2187500), wk =   0.0029297
        k(  135) = (  -0.4687500   0.4687500  -0.2812500), wk =   0.0029297
        k(  136) = (   0.4687500  -0.4687500   0.6562500), wk =   0.0029297
        k(  137) = (   0.4062500  -0.4062500   0.5937500), wk =   0.0029297
        k(  138) = (   0.3437500  -0.3437500   0.5312500), wk =   0.0029297
        k(  139) = (   0.2812500  -0.2812500   0.4687500), wk =   0.0029297
        k(  140) = (   0.2187500  -0.2187500   0.4062500), wk =   0.0029297
        k(  141) = (   0.1562500  -0.1562500   0.3437500), wk =   0.0029297
        k(  142) = (   0.0937500  -0.0937500   0.2812500), wk =   0.0029297
        k(  143) = (  -0.0937500   0.2187500   0.0937500), wk =   0.0029297
        k(  144) = (  -0.1562500   0.2812500   0.0312500), wk =   0.0058594
        k(  145) = (  -0.2187500   0.3437500  -0.0312500), wk =   0.0058594
        k(  146) = (  -0.2812500   0.4062500  -0.0937500), wk =   0.0058594
        k(  147) = (  -0.3437500   0.4687500  -0.1562500), wk =   0.0058594
        k(  148) = (  -0.4062500   0.5312500  -0.2187500), wk =   0.0058594
        k(  149) = (   0.5312500  -0.4062500   0.7187500), wk =   0.0058594
        k(  150) = (   0.4687500  -0.3437500   0.6562500), wk =   0.0058594
        k(  151) = (   0.4062500  -0.2812500   0.5937500), wk =   0.0058594
        k(  152) = (   0.3437500  -0.2187500   0.5312500), wk =   0.0058594
        k(  153) = (   0.2812500  -0.1562500   0.4687500), wk =   0.0058594
        k(  154) = (   0.2187500  -0.0937500   0.4062500), wk =   0.0058594
        k(  155) = (   0.1562500  -0.0312500   0.3437500), wk =   0.0058594
        k(  156) = (  -0.0937500   0.3437500   0.0937500), wk =   0.0029297
        k(  157) = (  -0.1562500   0.4062500   0.0312500), wk =   0.0058594
        k(  158) = (  -0.2187500   0.4687500  -0.0312500), wk =   0.0058594
        k(  159) = (  -0.2812500   0.5312500  -0.0937500), wk =   0.0058594
        k(  160) = (  -0.3437500   0.5937500  -0.1562500), wk =   0.0058594
        k(  161) = (   0.5937500  -0.3437500   0.7812500), wk =   0.0058594
        k(  162) = (   0.5312500  -0.2812500   0.7187500), wk =   0.0058594
        k(  163) = (   0.4687500  -0.2187500   0.6562500), wk =   0.0058594
        k(  164) = (   0.4062500  -0.1562500   0.5937500), wk =   0.0058594
        k(  165) = (   0.3437500  -0.0937500   0.5312500), wk =   0.0058594
        k(  166) = (   0.2812500  -0.0312500   0.4687500), wk =   0.0058594
        k(  167) = (   0.2187500   0.0312500   0.4062500), wk =   0.0058594
        k(  168) = (  -0.0937500   0.4687500   0.0937500), wk =   0.0029297
        k(  169) = (  -0.1562500   0.5312500   0.0312500), wk =   0.0058594
        k(  170) = (  -0.2187500   0.5937500  -0.0312500), wk =   0.0058594
        k(  171) = (  -0.2812500   0.6562500  -0.0937500), wk =   0.0058594
        k(  172) = (   0.6562500  -0.2812500   0.8437500), wk =   0.0058594
        k(  173) = (   0.5937500  -0.2187500   0.7812500), wk =   0.0058594
        k(  174) = (   0.5312500  -0.1562500   0.7187500), wk =   0.0058594
        k(  175) = (   0.4687500  -0.0937500   0.6562500), wk =   0.0058594
        k(  176) = (   0.4062500  -0.0312500   0.5937500), wk =   0.0058594
        k(  177) = (   0.3437500   0.0312500   0.5312500), wk =   0.0058594
        k(  178) = (   0.2812500   0.0937500   0.4687500), wk =   0.0058594
        k(  179) = (  -0.0937500   0.5937500   0.0937500), wk =   0.0029297
        k(  180) = (  -0.1562500   0.6562500   0.0312500), wk =   0.0058594
        k(  181) = (  -0.2187500   0.7187500  -0.0312500), wk =   0.0058594
        k(  182) = (   0.7187500  -0.2187500   0.9062500), wk =   0.0058594
        k(  183) = (   0.6562500  -0.1562500   0.8437500), wk =   0.0058594
        k(  184) = (   0.5937500  -0.0937500   0.7812500), wk =   0.0058594
        k(  185) = (   0.5312500  -0.0312500   0.7187500), wk =   0.0058594
        k(  186) = (   0.4687500   0.0312500   0.6562500), wk =   0.0058594
        k(  187) = (   0.4062500   0.0937500   0.5937500), wk =   0.0058594
        k(  188) = (   0.3437500   0.1562500   0.5312500), wk =   0.0058594
        k(  189) = (  -0.0937500   0.7187500   0.0937500), wk =   0.0029297
        k(  190) = (  -0.1562500   0.7812500   0.0312500), wk =   0.0058594
        k(  191) = (   0.7812500  -0.1562500   0.9687500), wk =   0.0058594
        k(  192) = (   0.7187500  -0.0937500   0.9062500), wk =   0.0058594
        k(  193) = (   0.6562500  -0.0312500   0.8437500), wk =   0.0058594
        k(  194) = (   0.5937500   0.0312500   0.7812500), wk =   0.0058594
        k(  195) = (   0.5312500   0.0937500   0.7187500), wk =   0.0058594
        k(  196) = (   0.4687500   0.1562500   0.6562500), wk =   0.0058594
        k(  197) = (   0.4062500   0.2187500   0.5937500), wk =   0.0058594
        k(  198) = (  -0.0937500   0.8437500   0.0937500), wk =   0.0029297
        k(  199) = (   0.8437500  -0.0937500   1.0312500), wk =   0.0058594
        k(  200) = (   0.7812500  -0.0312500   0.9687500), wk =   0.0058594
        k(  201) = (   0.7187500   0.0312500   0.9062500), wk =   0.0058594
        k(  202) = (   0.6562500   0.0937500   0.8437500), wk =   0.0058594
        k(  203) = (   0.5937500   0.1562500   0.7812500), wk =   0.0058594
        k(  204) = (   0.5312500   0.2187500   0.7187500), wk =   0.0058594
        k(  205) = (   0.4687500   0.2812500   0.6562500), wk =   0.0058594
        k(  206) = (  -0.0937500  -1.0312500   0.0937500), wk =   0.0029297
        k(  207) = (  -0.1562500  -0.9687500   0.0312500), wk =   0.0058594
        k(  208) = (  -0.2187500  -0.9062500  -0.0312500), wk =   0.0058594
        k(  209) = (  -0.2812500  -0.8437500  -0.0937500), wk =   0.0058594
        k(  210) = (  -0.3437500  -0.7812500  -0.1562500), wk =   0.0058594
        k(  211) = (  -0.4062500  -0.7187500  -0.2187500), wk =   0.0058594
        k(  212) = (  -0.0937500  -0.9062500   0.0937500), wk =   0.0029297
        k(  213) = (  -0.1562500  -0.8437500   0.0312500), wk =   0.0058594
        k(  214) = (  -0.2187500  -0.7812500  -0.0312500), wk =   0.0058594
        k(  215) = (  -0.2812500  -0.7187500  -0.0937500), wk =   0.0058594
        k(  216) = (  -0.3437500  -0.6562500  -0.1562500), wk =   0.0058594
        k(  217) = (  -0.0937500  -0.7812500   0.0937500), wk =   0.0029297
        k(  218) = (  -0.1562500  -0.7187500   0.0312500), wk =   0.0058594
        k(  219) = (  -0.2187500  -0.6562500  -0.0312500), wk =   0.0058594
        k(  220) = (  -0.2812500  -0.5937500  -0.0937500), wk =   0.0058594
        k(  221) = (  -0.0937500  -0.6562500   0.0937500), wk =   0.0029297
        k(  222) = (  -0.1562500  -0.5937500   0.0312500), wk =   0.0058594
        k(  223) = (  -0.2187500  -0.5312500  -0.0312500), wk =   0.0058594
        k(  224) = (  -0.0937500  -0.5312500   0.0937500), wk =   0.0029297
        k(  225) = (  -0.1562500  -0.4687500   0.0312500), wk =   0.0058594
        k(  226) = (  -0.0937500  -0.4062500   0.0937500), wk =   0.0029297
        k(  227) = (  -0.1562500   0.1562500   0.1562500), wk =   0.0009766
        k(  228) = (  -0.2187500   0.2187500   0.0937500), wk =   0.0029297
        k(  229) = (  -0.2812500   0.2812500   0.0312500), wk =   0.0029297
        k(  230) = (  -0.3437500   0.3437500  -0.0312500), wk =   0.0029297
        k(  231) = (  -0.4062500   0.4062500  -0.0937500), wk =   0.0029297
        k(  232) = (  -0.4687500   0.4687500  -0.1562500), wk =   0.0029297
        k(  233) = (   0.4687500  -0.4687500   0.7812500), wk =   0.0029297
        k(  234) = (   0.4062500  -0.4062500   0.7187500), wk =   0.0029297
        k(  235) = (   0.3437500  -0.3437500   0.6562500), wk =   0.0029297
        k(  236) = (   0.2812500  -0.2812500   0.5937500), wk =   0.0029297
        k(  237) = (   0.2187500  -0.2187500   0.5312500), wk =   0.0029297
        k(  238) = (   0.1562500  -0.1562500   0.4687500), wk =   0.0029297
        k(  239) = (  -0.1562500   0.2812500   0.1562500), wk =   0.0029297
        k(  240) = (  -0.2187500   0.3437500   0.0937500), wk =   0.0058594
        k(  241) = (  -0.2812500   0.4062500   0.0312500), wk =   0.0058594
        k(  242) = (  -0.3437500   0.4687500  -0.0312500), wk =   0.0058594
        k(  243) = (  -0.4062500   0.5312500  -0.0937500), wk =   0.0058594
        k(  244) = (   0.5312500  -0.4062500   0.8437500), wk =   0.0058594
        k(  245) = (   0.4687500  -0.3437500   0.7812500), wk =   0.0058594
        k(  246) = (   0.4062500  -0.2812500   0.7187500), wk =   0.0058594
        k(  247) = (   0.3437500  -0.2187500   0.6562500), wk =   0.0058594
        k(  248) = (   0.2812500  -0.1562500   0.5937500), wk =   0.0058594
        k(  249) = (   0.2187500  -0.0937500   0.5312500), wk =   0.0058594
        k(  250) = (  -0.1562500   0.4062500   0.1562500), wk =   0.0029297
        k(  251) = (  -0.2187500   0.4687500   0.0937500), wk =   0.0058594
        k(  252) = (  -0.2812500   0.5312500   0.0312500), wk =   0.0058594
        k(  253) = (  -0.3437500   0.5937500  -0.0312500), wk =   0.0058594
        k(  254) = (   0.5937500  -0.3437500   0.9062500), wk =   0.0058594
        k(  255) = (   0.5312500  -0.2812500   0.8437500), wk =   0.0058594
        k(  256) = (   0.4687500  -0.2187500   0.7812500), wk =   0.0058594
        k(  257) = (   0.4062500  -0.1562500   0.7187500), wk =   0.0058594
        k(  258) = (   0.3437500  -0.0937500   0.6562500), wk =   0.0058594
        k(  259) = (   0.2812500  -0.0312500   0.5937500), wk =   0.0058594
        k(  260) = (  -0.1562500   0.5312500   0.1562500), wk =   0.0029297
        k(  261) = (  -0.2187500   0.5937500   0.0937500), wk =   0.0058594
        k(  262) = (  -0.2812500   0.6562500   0.0312500), wk =   0.0058594
        k(  263) = (   0.6562500  -0.2812500   0.9687500), wk =   0.0058594
        k(  264) = (   0.5937500  -0.2187500   0.9062500), wk =   0.0058594
        k(  265) = (   0.5312500  -0.1562500   0.8437500), wk =   0.0058594
        k(  266) = (   0.4687500  -0.0937500   0.7812500), wk =   0.0058594
        k(  267) = (   0.4062500  -0.0312500   0.7187500), wk =   0.0058594
        k(  268) = (   0.3437500   0.0312500   0.6562500), wk =   0.0058594
        k(  269) = (  -0.1562500   0.6562500   0.1562500), wk =   0.0029297
        k(  270) = (  -0.2187500   0.7187500   0.0937500), wk =   0.0058594
        k(  271) = (   0.7187500  -0.2187500   1.0312500), wk =   0.0058594
        k(  272) = (   0.6562500  -0.1562500   0.9687500), wk =   0.0058594
        k(  273) = (   0.5937500  -0.0937500   0.9062500), wk =   0.0058594
        k(  274) = (   0.5312500  -0.0312500   0.8437500), wk =   0.0058594
        k(  275) = (   0.4687500   0.0312500   0.7812500), wk =   0.0058594
        k(  276) = (   0.4062500   0.0937500   0.7187500), wk =   0.0058594
        k(  277) = (  -0.1562500   0.7812500   0.1562500), wk =   0.0029297
        k(  278) = (   0.7812500  -0.1562500   1.0937500), wk =   0.0058594
        k(  279) = (   0.7187500  -0.0937500   1.0312500), wk =   0.0058594
        k(  280) = (   0.6562500  -0.0312500   0.9687500), wk =   0.0058594
        k(  281) = (   0.5937500   0.0312500   0.9062500), wk =   0.0058594
        k(  282) = (   0.5312500   0.0937500   0.8437500), wk =   0.0058594
        k(  283) = (   0.4687500   0.1562500   0.7812500), wk =   0.0058594
        k(  284) = (  -0.1562500  -1.0937500   0.1562500), wk =   0.0029297
        k(  285) = (  -0.2187500  -1.0312500   0.0937500), wk =   0.0058594
        k(  286) = (  -0.2812500  -0.9687500   0.0312500), wk =   0.0058594
        k(  287) = (  -0.3437500  -0.9062500  -0.0312500), wk =   0.0058594
        k(  288) = (  -0.4062500  -0.8437500  -0.0937500), wk =   0.0058594
        k(  289) = (  -0.1562500  -0.9687500   0.1562500), wk =   0.0029297
        k(  290) = (  -0.2187500  -0.9062500   0.0937500), wk =   0.0058594
        k(  291) = (  -0.2812500  -0.8437500   0.0312500), wk =   0.0058594
        k(  292) = (  -0.3437500  -0.7812500  -0.0312500), wk =   0.0058594
        k(  293) = (  -0.1562500  -0.8437500   0.1562500), wk =   0.0029297
        k(  294) = (  -0.2187500  -0.7812500   0.0937500), wk =   0.0058594
        k(  295) = (  -0.2812500  -0.7187500   0.0312500), wk =   0.0058594
        k(  296) = (  -0.1562500  -0.7187500   0.1562500), wk =   0.0029297
        k(  297) = (  -0.2187500  -0.6562500   0.0937500), wk =   0.0058594
        k(  298) = (  -0.1562500  -0.5937500   0.1562500), wk =   0.0029297
        k(  299) = (  -0.2187500   0.2187500   0.2187500), wk =   0.0009766
        k(  300) = (  -0.2812500   0.2812500   0.1562500), wk =   0.0029297
        k(  301) = (  -0.3437500   0.3437500   0.0937500), wk =   0.0029297
        k(  302) = (  -0.4062500   0.4062500   0.0312500), wk =   0.0029297
        k(  303) = (  -0.4687500   0.4687500  -0.0312500), wk =   0.0029297
        k(  304) = (   0.4687500  -0.4687500   0.9062500), wk =   0.0029297
        k(  305) = (   0.4062500  -0.4062500   0.8437500), wk =   0.0029297
        k(  306) = (   0.3437500  -0.3437500   0.7812500), wk =   0.0029297
        k(  307) = (   0.2812500  -0.2812500   0.7187500), wk =   0.0029297
        k(  308) = (   0.2187500  -0.2187500   0.6562500), wk =   0.0029297
        k(  309) = (  -0.2187500   0.3437500   0.2187500), wk =   0.0029297
        k(  310) = (  -0.2812500   0.4062500   0.1562500), wk =   0.0058594
        k(  311) = (  -0.3437500   0.4687500   0.0937500), wk =   0.0058594
        k(  312) = (  -0.4062500   0.5312500   0.0312500), wk =   0.0058594
        k(  313) = (   0.5312500  -0.4062500   0.9687500), wk =   0.0058594
        k(  314) = (   0.4687500  -0.3437500   0.9062500), wk =   0.0058594
        k(  315) = (   0.4062500  -0.2812500   0.8437500), wk =   0.0058594
        k(  316) = (   0.3437500  -0.2187500   0.7812500), wk =   0.0058594
        k(  317) = (   0.2812500  -0.1562500   0.7187500), wk =   0.0058594
        k(  318) = (  -0.2187500   0.4687500   0.2187500), wk =   0.0029297
        k(  319) = (  -0.2812500   0.5312500   0.1562500), wk =   0.0058594
        k(  320) = (  -0.3437500   0.5937500   0.0937500), wk =   0.0058594
        k(  321) = (   0.5937500  -0.3437500   1.0312500), wk =   0.0058594
        k(  322) = (   0.5312500  -0.2812500   0.9687500), wk =   0.0058594
        k(  323) = (   0.4687500  -0.2187500   0.9062500), wk =   0.0058594
        k(  324) = (   0.4062500  -0.1562500   0.8437500), wk =   0.0058594
        k(  325) = (   0.3437500  -0.0937500   0.7812500), wk =   0.0058594
        k(  326) = (  -0.2187500   0.5937500   0.2187500), wk =   0.0029297
        k(  327) = (  -0.2812500   0.6562500   0.1562500), wk =   0.0058594
        k(  328) = (   0.6562500  -0.2812500   1.0937500), wk =   0.0058594
        k(  329) = (   0.5937500  -0.2187500   1.0312500), wk =   0.0058594
        k(  330) = (   0.5312500  -0.1562500   0.9687500), wk =   0.0058594
        k(  331) = (   0.4687500  -0.0937500   0.9062500), wk =   0.0058594
        k(  332) = (   0.4062500  -0.0312500   0.8437500), wk =   0.0058594
        k(  333) = (  -0.2187500   0.7187500   0.2187500), wk =   0.0029297
        k(  334) = (   0.7187500  -0.2187500   1.1562500), wk =   0.0058594
        k(  335) = (   0.6562500  -0.1562500   1.0937500), wk =   0.0058594
        k(  336) = (   0.5937500  -0.0937500   1.0312500), wk =   0.0058594
        k(  337) = (   0.5312500  -0.0312500   0.9687500), wk =   0.0058594
        k(  338) = (   0.4687500   0.0312500   0.9062500), wk =   0.0058594
        k(  339) = (  -0.2187500  -1.1562500   0.2187500), wk =   0.0029297
        k(  340) = (  -0.2812500  -1.0937500   0.1562500), wk =   0.0058594
        k(  341) = (  -0.3437500  -1.0312500   0.0937500), wk =   0.0058594
        k(  342) = (  -0.4062500  -0.9687500   0.0312500), wk =   0.0058594
        k(  343) = (  -0.2187500  -1.0312500   0.2187500), wk =   0.0029297
        k(  344) = (  -0.2812500  -0.9687500   0.1562500), wk =   0.0058594
        k(  345) = (  -0.3437500  -0.9062500   0.0937500), wk =   0.0058594
        k(  346) = (  -0.2187500  -0.9062500   0.2187500), wk =   0.0029297
        k(  347) = (  -0.2812500  -0.8437500   0.1562500), wk =   0.0058594
        k(  348) = (  -0.2187500  -0.7812500   0.2187500), wk =   0.0029297
        k(  349) = (  -0.2812500   0.2812500   0.2812500), wk =   0.0009766
        k(  350) = (  -0.3437500   0.3437500   0.2187500), wk =   0.0029297
        k(  351) = (  -0.4062500   0.4062500   0.1562500), wk =   0.0029297
        k(  352) = (  -0.4687500   0.4687500   0.0937500), wk =   0.0029297
        k(  353) = (   0.4687500  -0.4687500   1.0312500), wk =   0.0029297
        k(  354) = (   0.4062500  -0.4062500   0.9687500), wk =   0.0029297
        k(  355) = (   0.3437500  -0.3437500   0.9062500), wk =   0.0029297
        k(  356) = (   0.2812500  -0.2812500   0.8437500), wk =   0.0029297
        k(  357) = (  -0.2812500   0.4062500   0.2812500), wk =   0.0029297
        k(  358) = (  -0.3437500   0.4687500   0.2187500), wk =   0.0058594
        k(  359) = (  -0.4062500   0.5312500   0.1562500), wk =   0.0058594
        k(  360) = (   0.5312500  -0.4062500   1.0937500), wk =   0.0058594
        k(  361) = (   0.4687500  -0.3437500   1.0312500), wk =   0.0058594
        k(  362) = (   0.4062500  -0.2812500   0.9687500), wk =   0.0058594
        k(  363) = (   0.3437500  -0.2187500   0.9062500), wk =   0.0058594
        k(  364) = (  -0.2812500   0.5312500   0.2812500), wk =   0.0029297
        k(  365) = (  -0.3437500   0.5937500   0.2187500), wk =   0.0058594
        k(  366) = (   0.5937500  -0.3437500   1.1562500), wk =   0.0058594
        k(  367) = (   0.5312500  -0.2812500   1.0937500), wk =   0.0058594
        k(  368) = (   0.4687500  -0.2187500   1.0312500), wk =   0.0058594
        k(  369) = (   0.4062500  -0.1562500   0.9687500), wk =   0.0058594
        k(  370) = (  -0.2812500   0.6562500   0.2812500), wk =   0.0029297
        k(  371) = (   0.6562500  -0.2812500   1.2187500), wk =   0.0058594
        k(  372) = (   0.5937500  -0.2187500   1.1562500), wk =   0.0058594
        k(  373) = (   0.5312500  -0.1562500   1.0937500), wk =   0.0058594
        k(  374) = (   0.4687500  -0.0937500   1.0312500), wk =   0.0058594
        k(  375) = (  -0.2812500  -1.2187500   0.2812500), wk =   0.0029297
        k(  376) = (  -0.3437500  -1.1562500   0.2187500), wk =   0.0058594
        k(  377) = (  -0.4062500  -1.0937500   0.1562500), wk =   0.0058594
        k(  378) = (  -0.2812500  -1.0937500   0.2812500), wk =   0.0029297
        k(  379) = (  -0.3437500  -1.0312500   0.2187500), wk =   0.0058594
        k(  380) = (  -0.2812500  -0.9687500   0.2812500), wk =   0.0029297
        k(  381) = (  -0.3437500   0.3437500   0.3437500), wk =   0.0009766
        k(  382) = (  -0.4062500   0.4062500   0.2812500), wk =   0.0029297
        k(  383) = (  -0.4687500   0.4687500   0.2187500), wk =   0.0029297
        k(  384) = (   0.4687500  -0.4687500   1.1562500), wk =   0.0029297
        k(  385) = (   0.4062500  -0.4062500   1.0937500), wk =   0.0029297
        k(  386) = (   0.3437500  -0.3437500   1.0312500), wk =   0.0029297
        k(  387) = (  -0.3437500   0.4687500   0.3437500), wk =   0.0029297
        k(  388) = (  -0.4062500   0.5312500   0.2812500), wk =   0.0058594
        k(  389) = (   0.5312500  -0.4062500   1.2187500), wk =   0.0058594
        k(  390) = (   0.4687500  -0.3437500   1.1562500), wk =   0.0058594
        k(  391) = (   0.4062500  -0.2812500   1.0937500), wk =   0.0058594
        k(  392) = (  -0.3437500   0.5937500   0.3437500), wk =   0.0029297
        k(  393) = (   0.5937500  -0.3437500   1.2812500), wk =   0.0058594
        k(  394) = (   0.5312500  -0.2812500   1.2187500), wk =   0.0058594
        k(  395) = (   0.4687500  -0.2187500   1.1562500), wk =   0.0058594
        k(  396) = (  -0.3437500  -1.2812500   0.3437500), wk =   0.0029297
        k(  397) = (  -0.4062500  -1.2187500   0.2812500), wk =   0.0058594
        k(  398) = (  -0.3437500  -1.1562500   0.3437500), wk =   0.0029297
        k(  399) = (  -0.4062500   0.4062500   0.4062500), wk =   0.0009766
        k(  400) = (  -0.4687500   0.4687500   0.3437500), wk =   0.0029297
        k(  401) = (   0.4687500  -0.4687500   1.2812500), wk =   0.0029297
        k(  402) = (   0.4062500  -0.4062500   1.2187500), wk =   0.0029297
        k(  403) = (  -0.4062500   0.5312500   0.4062500), wk =   0.0029297
        k(  404) = (   0.5312500  -0.4062500   1.3437500), wk =   0.0058594
        k(  405) = (   0.4687500  -0.3437500   1.2812500), wk =   0.0058594
        k(  406) = (  -0.4062500  -1.3437500   0.4062500), wk =   0.0029297
        k(  407) = (  -0.4687500   0.4687500   0.4687500), wk =   0.0009766
        k(  408) = (   0.4687500  -0.4687500   1.4062500), wk =   0.0029297

                       cryst. coord.
        k(    1) = (   0.0312500   0.0312500   0.0312500), wk =   0.0009766
        k(    2) = (   0.0312500   0.0312500   0.0937500), wk =   0.0029297
        k(    3) = (   0.0312500   0.0312500   0.1562500), wk =   0.0029297
        k(    4) = (   0.0312500   0.0312500   0.2187500), wk =   0.0029297
        k(    5) = (   0.0312500   0.0312500   0.2812500), wk =   0.0029297
        k(    6) = (   0.0312500   0.0312500   0.3437500), wk =   0.0029297
        k(    7) = (   0.0312500   0.0312500   0.4062500), wk =   0.0029297
        k(    8) = (   0.0312500   0.0312500   0.4687500), wk =   0.0029297
        k(    9) = (   0.0312500   0.0312500  -0.4687500), wk =   0.0029297
        k(   10) = (   0.0312500   0.0312500  -0.4062500), wk =   0.0029297
        k(   11) = (   0.0312500   0.0312500  -0.3437500), wk =   0.0029297
        k(   12) = (   0.0312500   0.0312500  -0.2812500), wk =   0.0029297
        k(   13) = (   0.0312500   0.0312500  -0.2187500), wk =   0.0029297
        k(   14) = (   0.0312500   0.0312500  -0.1562500), wk =   0.0029297
        k(   15) = (   0.0312500   0.0312500  -0.0937500), wk =   0.0029297
        k(   16) = (   0.0312500   0.0312500  -0.0312500), wk =   0.0029297
        k(   17) = (   0.0312500   0.0937500   0.0937500), wk =   0.0029297
        k(   18) = (   0.0312500   0.0937500   0.1562500), wk =   0.0058594
        k(   19) = (   0.0312500   0.0937500   0.2187500), wk =   0.0058594
        k(   20) = (   0.0312500   0.0937500   0.2812500), wk =   0.0058594
        k(   21) = (   0.0312500   0.0937500   0.3437500), wk =   0.0058594
        k(   22) = (   0.0312500   0.0937500   0.4062500), wk =   0.0058594
        k(   23) = (   0.0312500   0.0937500   0.4687500), wk =   0.0058594
        k(   24) = (   0.0312500   0.0937500  -0.4687500), wk =   0.0058594
        k(   25) = (   0.0312500   0.0937500  -0.4062500), wk =   0.0058594
        k(   26) = (   0.0312500   0.0937500  -0.3437500), wk =   0.0058594
        k(   27) = (   0.0312500   0.0937500  -0.2812500), wk =   0.0058594
        k(   28) = (   0.0312500   0.0937500  -0.2187500), wk =   0.0058594
        k(   29) = (   0.0312500   0.0937500  -0.1562500), wk =   0.0058594
        k(   30) = (   0.0312500   0.0937500  -0.0937500), wk =   0.0058594
        k(   31) = (   0.0312500   0.0937500  -0.0312500), wk =   0.0058594
        k(   32) = (   0.0312500   0.1562500   0.1562500), wk =   0.0029297
        k(   33) = (   0.0312500   0.1562500   0.2187500), wk =   0.0058594
        k(   34) = (   0.0312500   0.1562500   0.2812500), wk =   0.0058594
        k(   35) = (   0.0312500   0.1562500   0.3437500), wk =   0.0058594
        k(   36) = (   0.0312500   0.1562500   0.4062500), wk =   0.0058594
        k(   37) = (   0.0312500   0.1562500   0.4687500), wk =   0.0058594
        k(   38) = (   0.0312500   0.1562500  -0.4687500), wk =   0.0058594
        k(   39) = (   0.0312500   0.1562500  -0.4062500), wk =   0.0058594
        k(   40) = (   0.0312500   0.1562500  -0.3437500), wk =   0.0058594
        k(   41) = (   0.0312500   0.1562500  -0.2812500), wk =   0.0058594
        k(   42) = (   0.0312500   0.1562500  -0.2187500), wk =   0.0058594
        k(   43) = (   0.0312500   0.1562500  -0.1562500), wk =   0.0058594
        k(   44) = (   0.0312500   0.1562500  -0.0937500), wk =   0.0058594
        k(   45) = (   0.0312500   0.1562500  -0.0312500), wk =   0.0058594
        k(   46) = (   0.0312500   0.2187500   0.2187500), wk =   0.0029297
        k(   47) = (   0.0312500   0.2187500   0.2812500), wk =   0.0058594
        k(   48) = (   0.0312500   0.2187500   0.3437500), wk =   0.0058594
        k(   49) = (   0.0312500   0.2187500   0.4062500), wk =   0.0058594
        k(   50) = (   0.0312500   0.2187500   0.4687500), wk =   0.0058594
        k(   51) = (   0.0312500   0.2187500  -0.4687500), wk =   0.0058594
        k(   52) = (   0.0312500   0.2187500  -0.4062500), wk =   0.0058594
        k(   53) = (   0.0312500   0.2187500  -0.3437500), wk =   0.0058594
        k(   54) = (   0.0312500   0.2187500  -0.2812500), wk =   0.0058594
        k(   55) = (   0.0312500   0.2187500  -0.2187500), wk =   0.0058594
        k(   56) = (   0.0312500   0.2187500  -0.1562500), wk =   0.0058594
        k(   57) = (   0.0312500   0.2187500  -0.0937500), wk =   0.0058594
        k(   58) = (   0.0312500   0.2187500  -0.0312500), wk =   0.0058594
        k(   59) = (   0.0312500   0.2812500   0.2812500), wk =   0.0029297
        k(   60) = (   0.0312500   0.2812500   0.3437500), wk =   0.0058594
        k(   61) = (   0.0312500   0.2812500   0.4062500), wk =   0.0058594
        k(   62) = (   0.0312500   0.2812500   0.4687500), wk =   0.0058594
        k(   63) = (   0.0312500   0.2812500  -0.4687500), wk =   0.0058594
        k(   64) = (   0.0312500   0.2812500  -0.4062500), wk =   0.0058594
        k(   65) = (   0.0312500   0.2812500  -0.3437500), wk =   0.0058594
        k(   66) = (   0.0312500   0.2812500  -0.2812500), wk =   0.0058594
        k(   67) = (   0.0312500   0.2812500  -0.2187500), wk =   0.0058594
        k(   68) = (   0.0312500   0.2812500  -0.1562500), wk =   0.0058594
        k(   69) = (   0.0312500   0.2812500  -0.0937500), wk =   0.0058594
        k(   70) = (   0.0312500   0.2812500  -0.0312500), wk =   0.0058594
        k(   71) = (   0.0312500   0.3437500   0.3437500), wk =   0.0029297
        k(   72) = (   0.0312500   0.3437500   0.4062500), wk =   0.0058594
        k(   73) = (   0.0312500   0.3437500   0.4687500), wk =   0.0058594
        k(   74) = (   0.0312500   0.3437500  -0.4687500), wk =   0.0058594
        k(   75) = (   0.0312500   0.3437500  -0.4062500), wk =   0.0058594
        k(   76) = (   0.0312500   0.3437500  -0.3437500), wk =   0.0058594
        k(   77) = (   0.0312500   0.3437500  -0.2812500), wk =   0.0058594
        k(   78) = (   0.0312500   0.3437500  -0.2187500), wk =   0.0058594
        k(   79) = (   0.0312500   0.3437500  -0.1562500), wk =   0.0058594
        k(   80) = (   0.0312500   0.3437500  -0.0937500), wk =   0.0058594
        k(   81) = (   0.0312500   0.3437500  -0.0312500), wk =   0.0058594
        k(   82) = (   0.0312500   0.4062500   0.4062500), wk =   0.0029297
        k(   83) = (   0.0312500   0.4062500   0.4687500), wk =   0.0058594
        k(   84) = (   0.0312500   0.4062500  -0.4687500), wk =   0.0058594
        k(   85) = (   0.0312500   0.4062500  -0.4062500), wk =   0.0058594
        k(   86) = (   0.0312500   0.4062500  -0.3437500), wk =   0.0058594
        k(   87) = (   0.0312500   0.4062500  -0.2812500), wk =   0.0058594
        k(   88) = (   0.0312500   0.4062500  -0.2187500), wk =   0.0058594
        k(   89) = (   0.0312500   0.4062500  -0.1562500), wk =   0.0058594
        k(   90) = (   0.0312500   0.4062500  -0.0937500), wk =   0.0058594
        k(   91) = (   0.0312500   0.4062500  -0.0312500), wk =   0.0058594
        k(   92) = (   0.0312500   0.4687500   0.4687500), wk =   0.0029297
        k(   93) = (   0.0312500   0.4687500  -0.4687500), wk =   0.0058594
        k(   94) = (   0.0312500   0.4687500  -0.4062500), wk =   0.0058594
        k(   95) = (   0.0312500   0.4687500  -0.3437500), wk =   0.0058594
        k(   96) = (   0.0312500   0.4687500  -0.2812500), wk =   0.0058594
        k(   97) = (   0.0312500   0.4687500  -0.2187500), wk =   0.0058594
        k(   98) = (   0.0312500   0.4687500  -0.1562500), wk =   0.0058594
        k(   99) = (   0.0312500   0.4687500  -0.0937500), wk =   0.0058594
        k(  100) = (   0.0312500   0.4687500  -0.0312500), wk =   0.0058594
        k(  101) = (   0.0312500  -0.4687500  -0.4687500), wk =   0.0029297
        k(  102) = (   0.0312500  -0.4687500  -0.4062500), wk =   0.0058594
        k(  103) = (   0.0312500  -0.4687500  -0.3437500), wk =   0.0058594
        k(  104) = (   0.0312500  -0.4687500  -0.2812500), wk =   0.0058594
        k(  105) = (   0.0312500  -0.4687500  -0.2187500), wk =   0.0058594
        k(  106) = (   0.0312500  -0.4687500  -0.1562500), wk =   0.0058594
        k(  107) = (   0.0312500  -0.4687500  -0.0937500), wk =   0.0058594
        k(  108) = (   0.0312500  -0.4062500  -0.4062500), wk =   0.0029297
        k(  109) = (   0.0312500  -0.4062500  -0.3437500), wk =   0.0058594
        k(  110) = (   0.0312500  -0.4062500  -0.2812500), wk =   0.0058594
        k(  111) = (   0.0312500  -0.4062500  -0.2187500), wk =   0.0058594
        k(  112) = (   0.0312500  -0.4062500  -0.1562500), wk =   0.0058594
        k(  113) = (   0.0312500  -0.4062500  -0.0937500), wk =   0.0058594
        k(  114) = (   0.0312500  -0.3437500  -0.3437500), wk =   0.0029297
        k(  115) = (   0.0312500  -0.3437500  -0.2812500), wk =   0.0058594
        k(  116) = (   0.0312500  -0.3437500  -0.2187500), wk =   0.0058594
        k(  117) = (   0.0312500  -0.3437500  -0.1562500), wk =   0.0058594
        k(  118) = (   0.0312500  -0.3437500  -0.0937500), wk =   0.0058594
        k(  119) = (   0.0312500  -0.2812500  -0.2812500), wk =   0.0029297
        k(  120) = (   0.0312500  -0.2812500  -0.2187500), wk =   0.0058594
        k(  121) = (   0.0312500  -0.2812500  -0.1562500), wk =   0.0058594
        k(  122) = (   0.0312500  -0.2812500  -0.0937500), wk =   0.0058594
        k(  123) = (   0.0312500  -0.2187500  -0.2187500), wk =   0.0029297
        k(  124) = (   0.0312500  -0.2187500  -0.1562500), wk =   0.0058594
        k(  125) = (   0.0312500  -0.2187500  -0.0937500), wk =   0.0058594
        k(  126) = (   0.0312500  -0.1562500  -0.1562500), wk =   0.0029297
        k(  127) = (   0.0312500  -0.1562500  -0.0937500), wk =   0.0058594
        k(  128) = (   0.0312500  -0.0937500  -0.0937500), wk =   0.0029297
        k(  129) = (   0.0937500   0.0937500   0.0937500), wk =   0.0009766
        k(  130) = (   0.0937500   0.0937500   0.1562500), wk =   0.0029297
        k(  131) = (   0.0937500   0.0937500   0.2187500), wk =   0.0029297
        k(  132) = (   0.0937500   0.0937500   0.2812500), wk =   0.0029297
        k(  133) = (   0.0937500   0.0937500   0.3437500), wk =   0.0029297
        k(  134) = (   0.0937500   0.0937500   0.4062500), wk =   0.0029297
        k(  135) = (   0.0937500   0.0937500   0.4687500), wk =   0.0029297
        k(  136) = (   0.0937500   0.0937500  -0.4687500), wk =   0.0029297
        k(  137) = (   0.0937500   0.0937500  -0.4062500), wk =   0.0029297
        k(  138) = (   0.0937500   0.0937500  -0.3437500), wk =   0.0029297
        k(  139) = (   0.0937500   0.0937500  -0.2812500), wk =   0.0029297
        k(  140) = (   0.0937500   0.0937500  -0.2187500), wk =   0.0029297
        k(  141) = (   0.0937500   0.0937500  -0.1562500), wk =   0.0029297
        k(  142) = (   0.0937500   0.0937500  -0.0937500), wk =   0.0029297
        k(  143) = (   0.0937500   0.1562500   0.1562500), wk =   0.0029297
        k(  144) = (   0.0937500   0.1562500   0.2187500), wk =   0.0058594
        k(  145) = (   0.0937500   0.1562500   0.2812500), wk =   0.0058594
        k(  146) = (   0.0937500   0.1562500   0.3437500), wk =   0.0058594
        k(  147) = (   0.0937500   0.1562500   0.4062500), wk =   0.0058594
        k(  148) = (   0.0937500   0.1562500   0.4687500), wk =   0.0058594
        k(  149) = (   0.0937500   0.1562500  -0.4687500), wk =   0.0058594
        k(  150) = (   0.0937500   0.1562500  -0.4062500), wk =   0.0058594
        k(  151) = (   0.0937500   0.1562500  -0.3437500), wk =   0.0058594
        k(  152) = (   0.0937500   0.1562500  -0.2812500), wk =   0.0058594
        k(  153) = (   0.0937500   0.1562500  -0.2187500), wk =   0.0058594
        k(  154) = (   0.0937500   0.1562500  -0.1562500), wk =   0.0058594
        k(  155) = (   0.0937500   0.1562500  -0.0937500), wk =   0.0058594
        k(  156) = (   0.0937500   0.2187500   0.2187500), wk =   0.0029297
        k(  157) = (   0.0937500   0.2187500   0.2812500), wk =   0.0058594
        k(  158) = (   0.0937500   0.2187500   0.3437500), wk =   0.0058594
        k(  159) = (   0.0937500   0.2187500   0.4062500), wk =   0.0058594
        k(  160) = (   0.0937500   0.2187500   0.4687500), wk =   0.0058594
        k(  161) = (   0.0937500   0.2187500  -0.4687500), wk =   0.0058594
        k(  162) = (   0.0937500   0.2187500  -0.4062500), wk =   0.0058594
        k(  163) = (   0.0937500   0.2187500  -0.3437500), wk =   0.0058594
        k(  164) = (   0.0937500   0.2187500  -0.2812500), wk =   0.0058594
        k(  165) = (   0.0937500   0.2187500  -0.2187500), wk =   0.0058594
        k(  166) = (   0.0937500   0.2187500  -0.1562500), wk =   0.0058594
        k(  167) = (   0.0937500   0.2187500  -0.0937500), wk =   0.0058594
        k(  168) = (   0.0937500   0.2812500   0.2812500), wk =   0.0029297
        k(  169) = (   0.0937500   0.2812500   0.3437500), wk =   0.0058594
        k(  170) = (   0.0937500   0.2812500   0.4062500), wk =   0.0058594
        k(  171) = (   0.0937500   0.2812500   0.4687500), wk =   0.0058594
        k(  172) = (   0.0937500   0.2812500  -0.4687500), wk =   0.0058594
        k(  173) = (   0.0937500   0.2812500  -0.4062500), wk =   0.0058594
        k(  174) = (   0.0937500   0.2812500  -0.3437500), wk =   0.0058594
        k(  175) = (   0.0937500   0.2812500  -0.2812500), wk =   0.0058594
        k(  176) = (   0.0937500   0.2812500  -0.2187500), wk =   0.0058594
        k(  177) = (   0.0937500   0.2812500  -0.1562500), wk =   0.0058594
        k(  178) = (   0.0937500   0.2812500  -0.0937500), wk =   0.0058594
        k(  179) = (   0.0937500   0.3437500   0.3437500), wk =   0.0029297
        k(  180) = (   0.0937500   0.3437500   0.4062500), wk =   0.0058594
        k(  181) = (   0.0937500   0.3437500   0.4687500), wk =   0.0058594
        k(  182) = (   0.0937500   0.3437500  -0.4687500), wk =   0.0058594
        k(  183) = (   0.0937500   0.3437500  -0.4062500), wk =   0.0058594
        k(  184) = (   0.0937500   0.3437500  -0.3437500), wk =   0.0058594
        k(  185) = (   0.0937500   0.3437500  -0.2812500), wk =   0.0058594
        k(  186) = (   0.0937500   0.3437500  -0.2187500), wk =   0.0058594
        k(  187) = (   0.0937500   0.3437500  -0.1562500), wk =   0.0058594
        k(  188) = (   0.0937500   0.3437500  -0.0937500), wk =   0.0058594
        k(  189) = (   0.0937500   0.4062500   0.4062500), wk =   0.0029297
        k(  190) = (   0.0937500   0.4062500   0.4687500), wk =   0.0058594
        k(  191) = (   0.0937500   0.4062500  -0.4687500), wk =   0.0058594
        k(  192) = (   0.0937500   0.4062500  -0.4062500), wk =   0.0058594
        k(  193) = (   0.0937500   0.4062500  -0.3437500), wk =   0.0058594
        k(  194) = (   0.0937500   0.4062500  -0.2812500), wk =   0.0058594
        k(  195) = (   0.0937500   0.4062500  -0.2187500), wk =   0.0058594
        k(  196) = (   0.0937500   0.4062500  -0.1562500), wk =   0.0058594
        k(  197) = (   0.0937500   0.4062500  -0.0937500), wk =   0.0058594
        k(  198) = (   0.0937500   0.4687500   0.4687500), wk =   0.0029297
        k(  199) = (   0.0937500   0.4687500  -0.4687500), wk =   0.0058594
        k(  200) = (   0.0937500   0.4687500  -0.4062500), wk =   0.0058594
        k(  201) = (   0.0937500   0.4687500  -0.3437500), wk =   0.0058594
        k(  202) = (   0.0937500   0.4687500  -0.2812500), wk =   0.0058594
        k(  203) = (   0.0937500   0.4687500  -0.2187500), wk =   0.0058594
        k(  204) = (   0.0937500   0.4687500  -0.1562500), wk =   0.0058594
        k(  205) = (   0.0937500   0.4687500  -0.0937500), wk =   0.0058594
        k(  206) = (   0.0937500  -0.4687500  -0.4687500), wk =   0.0029297
        k(  207) = (   0.0937500  -0.4687500  -0.4062500), wk =   0.0058594
        k(  208) = (   0.0937500  -0.4687500  -0.3437500), wk =   0.0058594
        k(  209) = (   0.0937500  -0.4687500  -0.2812500), wk =   0.0058594
        k(  210) = (   0.0937500  -0.4687500  -0.2187500), wk =   0.0058594
        k(  211) = (   0.0937500  -0.4687500  -0.1562500), wk =   0.0058594
        k(  212) = (   0.0937500  -0.4062500  -0.4062500), wk =   0.0029297
        k(  213) = (   0.0937500  -0.4062500  -0.3437500), wk =   0.0058594
        k(  214) = (   0.0937500  -0.4062500  -0.2812500), wk =   0.0058594
        k(  215) = (   0.0937500  -0.4062500  -0.2187500), wk =   0.0058594
        k(  216) = (   0.0937500  -0.4062500  -0.1562500), wk =   0.0058594
        k(  217) = (   0.0937500  -0.3437500  -0.3437500), wk =   0.0029297
        k(  218) = (   0.0937500  -0.3437500  -0.2812500), wk =   0.0058594
        k(  219) = (   0.0937500  -0.3437500  -0.2187500), wk =   0.0058594
        k(  220) = (   0.0937500  -0.3437500  -0.1562500), wk =   0.0058594
        k(  221) = (   0.0937500  -0.2812500  -0.2812500), wk =   0.0029297
        k(  222) = (   0.0937500  -0.2812500  -0.2187500), wk =   0.0058594
        k(  223) = (   0.0937500  -0.2812500  -0.1562500), wk =   0.0058594
        k(  224) = (   0.0937500  -0.2187500  -0.2187500), wk =   0.0029297
        k(  225) = (   0.0937500  -0.2187500  -0.1562500), wk =   0.0058594
        k(  226) = (   0.0937500  -0.1562500  -0.1562500), wk =   0.0029297
        k(  227) = (   0.1562500   0.1562500   0.1562500), wk =   0.0009766
        k(  228) = (   0.1562500   0.1562500   0.2187500), wk =   0.0029297
        k(  229) = (   0.1562500   0.1562500   0.2812500), wk =   0.0029297
        k(  230) = (   0.1562500   0.1562500   0.3437500), wk =   0.0029297
        k(  231) = (   0.1562500   0.1562500   0.4062500), wk =   0.0029297
        k(  232) = (   0.1562500   0.1562500   0.4687500), wk =   0.0029297
        k(  233) = (   0.1562500   0.1562500  -0.4687500), wk =   0.0029297
        k(  234) = (   0.1562500   0.1562500  -0.4062500), wk =   0.0029297
        k(  235) = (   0.1562500   0.1562500  -0.3437500), wk =   0.0029297
        k(  236) = (   0.1562500   0.1562500  -0.2812500), wk =   0.0029297
        k(  237) = (   0.1562500   0.1562500  -0.2187500), wk =   0.0029297
        k(  238) = (   0.1562500   0.1562500  -0.1562500), wk =   0.0029297
        k(  239) = (   0.1562500   0.2187500   0.2187500), wk =   0.0029297
        k(  240) = (   0.1562500   0.2187500   0.2812500), wk =   0.0058594
        k(  241) = (   0.1562500   0.2187500   0.3437500), wk =   0.0058594
        k(  242) = (   0.1562500   0.2187500   0.4062500), wk =   0.0058594
        k(  243) = (   0.1562500   0.2187500   0.4687500), wk =   0.0058594
        k(  244) = (   0.1562500   0.2187500  -0.4687500), wk =   0.0058594
        k(  245) = (   0.1562500   0.2187500  -0.4062500), wk =   0.0058594
        k(  246) = (   0.1562500   0.2187500  -0.3437500), wk =   0.0058594
        k(  247) = (   0.1562500   0.2187500  -0.2812500), wk =   0.0058594
        k(  248) = (   0.1562500   0.2187500  -0.2187500), wk =   0.0058594
        k(  249) = (   0.1562500   0.2187500  -0.1562500), wk =   0.0058594
        k(  250) = (   0.1562500   0.2812500   0.2812500), wk =   0.0029297
        k(  251) = (   0.1562500   0.2812500   0.3437500), wk =   0.0058594
        k(  252) = (   0.1562500   0.2812500   0.4062500), wk =   0.0058594
        k(  253) = (   0.1562500   0.2812500   0.4687500), wk =   0.0058594
        k(  254) = (   0.1562500   0.2812500  -0.4687500), wk =   0.0058594
        k(  255) = (   0.1562500   0.2812500  -0.4062500), wk =   0.0058594
        k(  256) = (   0.1562500   0.2812500  -0.3437500), wk =   0.0058594
        k(  257) = (   0.1562500   0.2812500  -0.2812500), wk =   0.0058594
        k(  258) = (   0.1562500   0.2812500  -0.2187500), wk =   0.0058594
        k(  259) = (   0.1562500   0.2812500  -0.1562500), wk =   0.0058594
        k(  260) = (   0.1562500   0.3437500   0.3437500), wk =   0.0029297
        k(  261) = (   0.1562500   0.3437500   0.4062500), wk =   0.0058594
        k(  262) = (   0.1562500   0.3437500   0.4687500), wk =   0.0058594
        k(  263) = (   0.1562500   0.3437500  -0.4687500), wk =   0.0058594
        k(  264) = (   0.1562500   0.3437500  -0.4062500), wk =   0.0058594
        k(  265) = (   0.1562500   0.3437500  -0.3437500), wk =   0.0058594
        k(  266) = (   0.1562500   0.3437500  -0.2812500), wk =   0.0058594
        k(  267) = (   0.1562500   0.3437500  -0.2187500), wk =   0.0058594
        k(  268) = (   0.1562500   0.3437500  -0.1562500), wk =   0.0058594
        k(  269) = (   0.1562500   0.4062500   0.4062500), wk =   0.0029297
        k(  270) = (   0.1562500   0.4062500   0.4687500), wk =   0.0058594
        k(  271) = (   0.1562500   0.4062500  -0.4687500), wk =   0.0058594
        k(  272) = (   0.1562500   0.4062500  -0.4062500), wk =   0.0058594
        k(  273) = (   0.1562500   0.4062500  -0.3437500), wk =   0.0058594
        k(  274) = (   0.1562500   0.4062500  -0.2812500), wk =   0.0058594
        k(  275) = (   0.1562500   0.4062500  -0.2187500), wk =   0.0058594
        k(  276) = (   0.1562500   0.4062500  -0.1562500), wk =   0.0058594
        k(  277) = (   0.1562500   0.4687500   0.4687500), wk =   0.0029297
        k(  278) = (   0.1562500   0.4687500  -0.4687500), wk =   0.0058594
        k(  279) = (   0.1562500   0.4687500  -0.4062500), wk =   0.0058594
        k(  280) = (   0.1562500   0.4687500  -0.3437500), wk =   0.0058594
        k(  281) = (   0.1562500   0.4687500  -0.2812500), wk =   0.0058594
        k(  282) = (   0.1562500   0.4687500  -0.2187500), wk =   0.0058594
        k(  283) = (   0.1562500   0.4687500  -0.1562500), wk =   0.0058594
        k(  284) = (   0.1562500  -0.4687500  -0.4687500), wk =   0.0029297
        k(  285) = (   0.1562500  -0.4687500  -0.4062500), wk =   0.0058594
        k(  286) = (   0.1562500  -0.4687500  -0.3437500), wk =   0.0058594
        k(  287) = (   0.1562500  -0.4687500  -0.2812500), wk =   0.0058594
        k(  288) = (   0.1562500  -0.4687500  -0.2187500), wk =   0.0058594
        k(  289) = (   0.1562500  -0.4062500  -0.4062500), wk =   0.0029297
        k(  290) = (   0.1562500  -0.4062500  -0.3437500), wk =   0.0058594
        k(  291) = (   0.1562500  -0.4062500  -0.2812500), wk =   0.0058594
        k(  292) = (   0.1562500  -0.4062500  -0.2187500), wk =   0.0058594
        k(  293) = (   0.1562500  -0.3437500  -0.3437500), wk =   0.0029297
        k(  294) = (   0.1562500  -0.3437500  -0.2812500), wk =   0.0058594
        k(  295) = (   0.1562500  -0.3437500  -0.2187500), wk =   0.0058594
        k(  296) = (   0.1562500  -0.2812500  -0.2812500), wk =   0.0029297
        k(  297) = (   0.1562500  -0.2812500  -0.2187500), wk =   0.0058594
        k(  298) = (   0.1562500  -0.2187500  -0.2187500), wk =   0.0029297
        k(  299) = (   0.2187500   0.2187500   0.2187500), wk =   0.0009766
        k(  300) = (   0.2187500   0.2187500   0.2812500), wk =   0.0029297
        k(  301) = (   0.2187500   0.2187500   0.3437500), wk =   0.0029297
        k(  302) = (   0.2187500   0.2187500   0.4062500), wk =   0.0029297
        k(  303) = (   0.2187500   0.2187500   0.4687500), wk =   0.0029297
        k(  304) = (   0.2187500   0.2187500  -0.4687500), wk =   0.0029297
        k(  305) = (   0.2187500   0.2187500  -0.4062500), wk =   0.0029297
        k(  306) = (   0.2187500   0.2187500  -0.3437500), wk =   0.0029297
        k(  307) = (   0.2187500   0.2187500  -0.2812500), wk =   0.0029297
        k(  308) = (   0.2187500   0.2187500  -0.2187500), wk =   0.0029297
        k(  309) = (   0.2187500   0.2812500   0.2812500), wk =   0.0029297
        k(  310) = (   0.2187500   0.2812500   0.3437500), wk =   0.0058594
        k(  311) = (   0.2187500   0.2812500   0.4062500), wk =   0.0058594
        k(  312) = (   0.2187500   0.2812500   0.4687500), wk =   0.0058594
        k(  313) = (   0.2187500   0.2812500  -0.4687500), wk =   0.0058594
        k(  314) = (   0.2187500   0.2812500  -0.4062500), wk =   0.0058594
        k(  315) = (   0.2187500   0.2812500  -0.3437500), wk =   0.0058594
        k(  316) = (   0.2187500   0.2812500  -0.2812500), wk =   0.0058594
        k(  317) = (   0.2187500   0.2812500  -0.2187500), wk =   0.0058594
        k(  318) = (   0.2187500   0.3437500   0.3437500), wk =   0.0029297
        k(  319) = (   0.2187500   0.3437500   0.4062500), wk =   0.0058594
        k(  320) = (   0.2187500   0.3437500   0.4687500), wk =   0.0058594
        k(  321) = (   0.2187500   0.3437500  -0.4687500), wk =   0.0058594
        k(  322) = (   0.2187500   0.3437500  -0.4062500), wk =   0.0058594
        k(  323) = (   0.2187500   0.3437500  -0.3437500), wk =   0.0058594
        k(  324) = (   0.2187500   0.3437500  -0.2812500), wk =   0.0058594
        k(  325) = (   0.2187500   0.3437500  -0.2187500), wk =   0.0058594
        k(  326) = (   0.2187500   0.4062500   0.4062500), wk =   0.0029297
        k(  327) = (   0.2187500   0.4062500   0.4687500), wk =   0.0058594
        k(  328) = (   0.2187500   0.4062500  -0.4687500), wk =   0.0058594
[...]

   -49.5001 -17.1485 -16.0740 -15.2817  30.6531  32.1477  35.8113  37.8238
    40.8345  49.2218  54.4479  61.0872

     occupation numbers 
     1.0000   1.0000   1.0000   1.0000   1.0000   1.0000   1.0000   1.0001
     0.0000   0.0000   0.0000   0.0000

          k =-0.2812 0.4062 0.2812 (   150 PWs)   bands (ev):

   -49.9861 -16.8166 -14.9183 -14.8569  30.3456  35.0062  35.4692  35.6141
    39.8223  40.0878  59.7940  65.5770

     occupation numbers 
     1.0000   1.0000   1.0000   1.0000   1.0000   1.0000   1.0000   1.0000
     0.0000   0.0000   0.0000   0.0000

          k =-0.3438 0.4688 0.2188 (   149 PWs)   bands (ev):

   -49.8918 -16.9308 -15.0969 -14.8842  30.6839  34.6136  35.3628  35.7488
    39.6695  41.7569  59.1074  65.1174

     occupation numbers 
     1.0000   1.0000   1.0000   1.0000   1.0000   1.0000   1.0000   1.0000
     0.0000   0.0000   0.0000   0.0000

          k =-0.4062 0.5312 0.1562 (   150 PWs)   bands (ev):

   -49.7792 -17.0026 -15.4269 -14.9362  31.3611  33.9117  34.9609  36.2505
    39.4347  43.6727  58.5588  63.9545

     occupation numbers 
     1.0000   1.0000   1.0000   1.0000   1.0000   1.0000   1.0000   1.0000
     0.0000   0.0000   0.0000   0.0000

          k = 0.5312-0.4062 1.0938 (   151 PWs)   bands (ev):

   -49.6631 -16.9966 -15.8037 -15.0299  32.2518  33.1164  34.4330  36.9181
    39.3459  45.6840  58.0926  61.9959

     occupation numbers 
     1.0000   1.0000   1.0000   1.0000   1.0000   1.0000   1.0000   1.0000
     0.0002   0.0000   0.0000   0.0000

          k = 0.4688-0.3438 1.0312 (   150 PWs)   bands (ev):

   -49.5589 -16.8735 -16.1676 -15.1171  32.1936  33.0635  34.0852  37.5564
    39.7099  47.9261  57.2392  60.0779

     occupation numbers 
     1.0000   1.0000   1.0000   1.0000   1.0000   1.0000   1.0000   1.0000
     0.0000   0.0000   0.0000   0.0000

          k = 0.4062-0.2812 0.9688 (   150 PWs)   bands (ev):

   -49.4873 -16.7277 -16.4345 -15.2411  31.3921  32.8180  34.7809  37.9081
    40.1884  50.2179  55.1784  59.5946

     occupation numbers 
     1.0000   1.0000   1.0000   1.0000   1.0000   1.0000   1.0000   1.0006
     0.0000   0.0000   0.0000   0.0000

          k = 0.3438-0.2188 0.9062 (   151 PWs)   bands (ev):

   -49.4598 -16.9527 -16.2729 -15.3086  30.7087  32.1799  35.6341  38.3185
    40.8501  50.9391  53.9966  59.9827

     occupation numbers 
     1.0000   1.0000   1.0000   1.0000   1.0000   1.0000   1.0000   1.0685
     0.0000   0.0000   0.0000   0.0000

          k =-0.2812 0.5312 0.2812 (   148 PWs)   bands (ev):

   -49.8217 -17.0440 -15.0783 -15.0032  30.6740  34.1679  35.5706  35.8315
    41.0444  41.8524  58.2773  65.0407

     occupation numbers 
     1.0000   1.0000   1.0000   1.0000   1.0000   1.0000   1.0000   1.0000
     0.0000   0.0000   0.0000   0.0000

          k =-0.3438 0.5938 0.2188 (   150 PWs)   bands (ev):

   -49.7333 -17.1303 -15.3321 -15.0571  30.9759  33.5947  35.2694  36.3402
    40.6744  43.6532  57.5796  64.4067

     occupation numbers 
     1.0000   1.0000   1.0000   1.0000   1.0000   1.0000   1.0000   1.0000
     0.0000   0.0000   0.0000   0.0000

          k = 0.5938-0.3438 1.1562 (   152 PWs)   bands (ev):

   -49.6366 -17.1773 -15.6537 -15.1359  31.5887  32.9383  34.8076  37.0886
    40.2298  45.7292  56.9403  63.0060

     occupation numbers 
     1.0000   1.0000   1.0000   1.0000   1.0000   1.0000   1.0000   1.0000
     0.0000   0.0000   0.0000   0.0000

          k = 0.5312-0.2812 1.0938 (   152 PWs)   bands (ev):

   -49.5442 -17.0181 -16.0322 -15.2558  32.0743  32.5616  34.2396  37.6094
    40.2215  48.0960  56.4644  60.9746

     occupation numbers 
     1.0000   1.0000   1.0000   1.0000   1.0000   1.0000   1.0000   1.0000
     0.0000   0.0000   0.0000   0.0000

          k = 0.4688-0.2188 1.0312 (   151 PWs)   bands (ev):

   -49.4716 -16.7243 -16.4261 -15.3756  31.4736  33.0121  34.1056  37.9293
    40.5363  50.6521  55.4650  59.3629

     occupation numbers 
     1.0000   1.0000   1.0000   1.0000   1.0000   1.0000   1.0000   1.0008
     0.0000   0.0000   0.0000   0.0000

          k = 0.4062-0.1562 0.9688 (   150 PWs)   bands (ev):

   -49.4315 -16.7101 -16.4290 -15.4898  30.8312  32.4551  34.9927  38.2782
    41.1123  52.7775  53.7879  59.0198

     occupation numbers 
     1.0000   1.0000   1.0000   1.0000   1.0000   1.0000   1.0000   1.0550
     0.0000   0.0000   0.0000   0.0000

          k =-0.2812 0.6562 0.2812 (   149 PWs)   bands (ev):

   -49.6667 -17.1989 -15.4015 -15.1262  30.8627  33.1948  35.6309  36.5048
    41.3746  44.5002  56.7256  64.1364

     occupation numbers 
     1.0000   1.0000   1.0000   1.0000   1.0000   1.0000   1.0000   1.0000
     0.0000   0.0000   0.0000   0.0000

          k = 0.6562-0.2812 1.2188 (   150 PWs)   bands (ev):

   -49.5916 -17.2016 -15.6383 -15.1918  31.0929  32.7016  35.3547  37.1917
    41.0786  46.3853  55.9879  63.1707

     occupation numbers 
     1.0000   1.0000   1.0000   1.0000   1.0000   1.0000   1.0000   1.0000
     0.0000   0.0000   0.0000   0.0000

          k = 0.5938-0.2188 1.1562 (   151 PWs)   bands (ev):

   -49.5180 -17.0665 -15.9501 -15.3318  31.3880  32.4139  34.7781  37.7443
    40.9710  48.5915  55.5391  61.6395

     occupation numbers 
     1.0000   1.0000   1.0000   1.0000   1.0000   1.0000   1.0000   1.0000
     0.0000   0.0000   0.0000   0.0000

          k = 0.5312-0.1562 1.0938 (   151 PWs)   bands (ev):

   -49.4568 -16.8027 -16.2891 -15.4923  31.2566  32.9338  34.0974  37.9846
    41.0082  51.0944  55.1763  59.7576

     occupation numbers 
     1.0000   1.0000   1.0000   1.0000   1.0000   1.0000   1.0000   1.0020
     0.0000   0.0000   0.0000   0.0000

          k = 0.4688-0.0938 1.0312 (   151 PWs)   bands (ev):

   -49.4186 -16.6415 -16.4780 -15.6221  30.9133  33.0926  34.0607  38.0927
    41.3994  53.4862  54.3599  58.1974

     occupation numbers 
     1.0000   1.0000   1.0000   1.0000   1.0000   1.0000   1.0000   1.0093
     0.0000   0.0000   0.0000   0.0000

          k =-0.2812-1.2188 0.2812 (   152 PWs)   bands (ev):

   -49.5434 -17.1928 -15.8501 -15.2363  30.7777  32.3441  35.7499  37.3848
    41.1535  47.6685  55.1810  62.2356

     occupation numbers 
     1.0000   1.0000   1.0000   1.0000   1.0000   1.0000   1.0000   1.0000
     0.0000   0.0000   0.0000   0.0000

          k =-0.3438-1.1562 0.2188 (   151 PWs)   bands (ev):

   -49.4912 -17.0980 -16.0546 -15.2834  30.8537  32.2176  35.5230  38.0495
    40.9609  49.4558  54.5919  61.0252

     occupation numbers 
     1.0000   1.0000   1.0000   1.0000   1.0000   1.0000   1.0000   1.0053
     0.0000   0.0000   0.0000   0.0000

          k =-0.4062-1.0938 0.1562 (   152 PWs)   bands (ev):

   -49.4484 -16.8457 -16.3287 -15.4664  30.9204  32.4255  34.9182  38.1417
    40.9778  51.5996  54.3273  59.6980

     occupation numbers 
     1.0000   1.0000   1.0000   1.0000   1.0000   1.0000   1.0000   1.0166
     0.0000   0.0000   0.0000   0.0000

          k =-0.2812-1.0938 0.2812 (   150 PWs)   bands (ev):

   -49.4634 -16.9625 -16.2510 -15.2530  30.6102  32.1007  35.9744  38.4304
    40.7064  50.7701  53.8784  60.0654

     occupation numbers 
     1.0000   1.0000   1.0000   1.0000   1.0000   1.0000   1.0000   1.0792
     0.0000   0.0000   0.0000   0.0000

          k =-0.3438-1.0312 0.2188 (   151 PWs)   bands (ev):

   -49.4436 -16.7797 -16.4473 -15.3499  30.6455  32.1513  35.7209  38.4522
    40.6787  52.2066  53.3480  59.3719

     occupation numbers 
     1.0000   1.0000   1.0000   1.0000   1.0000   1.0000   1.0000   1.0715
     0.0000   0.0000   0.0000   0.0000

          k =-0.2812-0.9688 0.2812 (   146 PWs)   bands (ev):

   -49.4420 -16.7844 -16.3905 -15.2157  30.6308  32.1621  36.0757  38.7158
    40.8248  52.0008  53.2037  59.5245

     occupation numbers 
     1.0000   1.0000   1.0000   1.0000   1.0000   1.0000   1.0000   0.5771
     0.0000   0.0000   0.0000   0.0000

          k =-0.3438 0.3438 0.3438 (   153 PWs)   bands (ev):

   -49.9537 -17.0426 -14.8921 -14.8921  30.0964  35.0817  35.0817  36.6965
    39.7766  39.7766  58.8551  65.1476

     occupation numbers 
     1.0000   1.0000   1.0000   1.0000   1.0000   1.0000   1.0000   1.0000
     0.0000   0.0000   0.0000   0.0000

          k =-0.4062 0.4062 0.2812 (   151 PWs)   bands (ev):

   -49.8803 -17.1453 -14.9957 -14.8865  30.2531  34.8652  35.1519  36.6997
    39.6021  41.3140  58.1397  64.8188

     occupation numbers 
     1.0000   1.0000   1.0000   1.0000   1.0000   1.0000   1.0000   1.0000
     0.0000   0.0000   0.0000   0.0000

          k =-0.4688 0.4688 0.2188 (   151 PWs)   bands (ev):

   -49.7838 -17.1734 -15.2677 -14.9277  30.7988  34.2593  35.5232  36.1417
    39.4848  43.2964  57.5739  64.2479

     occupation numbers 
     1.0000   1.0000   1.0000   1.0000   1.0000   1.0000   1.0000   1.0000
     0.0000   0.0000   0.0000   0.0000

          k = 0.4688-0.4688 1.1562 (   155 PWs)   bands (ev):

   -49.6817 -17.2338 -15.6521 -15.0159  31.5096  33.4835  35.3648  36.1105
    39.4432  45.1881  56.9390  62.9444

     occupation numbers 
     1.0000   1.0000   1.0000   1.0000   1.0000   1.0000   1.0000   1.0000
     0.0000   0.0000   0.0000   0.0000

          k = 0.4062-0.4062 1.0938 (   153 PWs)   bands (ev):

   -49.5776 -17.0212 -16.0614 -15.1104  31.8670  32.9582  34.8286  36.9789
    39.6027  47.6267  56.3504  61.0325

     occupation numbers 
     1.0000   1.0000   1.0000   1.0000   1.0000   1.0000   1.0000   1.0000
     0.0000   0.0000   0.0000   0.0000

          k = 0.3438-0.3438 1.0312 (   146 PWs)   bands (ev):

   -49.4886 -16.7090 -16.3916 -15.1264  31.3427  32.9088  35.1190  37.9537
    40.3096  50.0662  55.0980  59.7219

     occupation numbers 
     1.0000   1.0000   1.0000   1.0000   1.0000   1.0000   1.0000   1.0012
     0.0000   0.0000   0.0000   0.0000

          k =-0.3438 0.4688 0.3438 (   149 PWs)   bands (ev):

   -49.8310 -17.2543 -14.9486 -14.9230  30.1681  34.7177  35.1668  37.0436
    40.9269  40.9932  57.3817  64.5773

     occupation numbers 
     1.0000   1.0000   1.0000   1.0000   1.0000   1.0000   1.0000   1.0000
     0.0000   0.0000   0.0000   0.0000

          k =-0.4062 0.5312 0.2812 (   151 PWs)   bands (ev):

   -49.7601 -17.3332 -15.1608 -14.9607  30.4546  34.2347  35.3818  36.6405
    40.4978  42.8534  56.7213  64.3161

     occupation numbers 
     1.0000   1.0000   1.0000   1.0000   1.0000   1.0000   1.0000   1.0000
     0.0000   0.0000   0.0000   0.0000

          k = 0.5312-0.4062 1.2188 (   154 PWs)   bands (ev):

   -49.6747 -17.3767 -15.4636 -15.0362  31.0408  33.5491  35.7150  36.1207
    40.1635  44.9514  56.0308  63.6294

     occupation numbers 
     1.0000   1.0000   1.0000   1.0000   1.0000   1.0000   1.0000   1.0000
     0.0000   0.0000   0.0000   0.0000

          k = 0.4688-0.3438 1.1562 (   152 PWs)   bands (ev):

   -49.5811 -17.1883 -15.8445 -15.1190  31.7813  32.7278  35.2054  36.7813
    40.1723  47.3876  55.5220  62.1273

     occupation numbers 
     1.0000   1.0000   1.0000   1.0000   1.0000   1.0000   1.0000   1.0000
     0.0000   0.0000   0.0000   0.0000

          k = 0.4062-0.2812 1.0938 (   150 PWs)   bands (ev):

   -49.4990 -16.9248 -16.2230 -15.2169  31.4283  32.6880  34.9315  37.7137
    40.3793  49.8454  54.7772  60.3601

     occupation numbers 
     1.0000   1.0000   1.0000   1.0000   1.0000   1.0000   1.0000   1.0000
     0.0000   0.0000   0.0000   0.0000

          k =-0.3438 0.5938 0.3438 (   151 PWs)   bands (ev):

   -49.7117 -17.4060 -15.1972 -15.0221  30.4770  33.9053  35.5595  36.5143
    41.2953  43.3593  56.0130  64.2194

     occupation numbers 
     1.0000   1.0000   1.0000   1.0000   1.0000   1.0000   1.0000   1.0000
     0.0000   0.0000   0.0000   0.0000

          k = 0.5938-0.3438 1.2812 (   153 PWs)   bands (ev):

   -49.6479 -17.4087 -15.4292 -15.0830  30.8358  33.3373  35.8231  36.1864
    40.9843  45.2149  55.3573  63.8143

     occupation numbers 
     1.0000   1.0000   1.0000   1.0000   1.0000   1.0000   1.0000   1.0000
     0.0000   0.0000   0.0000   0.0000

          k = 0.5312-0.2812 1.2188 (   151 PWs)   bands (ev):

   -49.5725 -17.3056 -15.6646 -15.1648  31.5824  32.7197  35.3673  36.8088
    40.7345  47.3783  54.8312  62.9079

     occupation numbers 
     1.0000   1.0000   1.0000   1.0000   1.0000   1.0000   1.0000   1.0000
     0.0000   0.0000   0.0000   0.0000

          k = 0.4688-0.2188 1.1562 (   152 PWs)   bands (ev):

   -49.5040 -17.0524 -16.0605 -15.3216  31.7666  32.4078  34.5980  37.5670
    40.6858  49.6381  54.5365  61.2879

     occupation numbers 
     1.0000   1.0000   1.0000   1.0000   1.0000   1.0000   1.0000   1.0000
     0.0000   0.0000   0.0000   0.0000

          k =-0.3438-1.2812 0.3438 (   153 PWs)   bands (ev):

   -49.6075 -17.4231 -15.5182 -15.1390  30.9033  33.1591  35.9884  36.2261
    40.9182  46.2985  54.7320  63.4405

     occupation numbers 
     1.0000   1.0000   1.0000   1.0000   1.0000   1.0000   1.0000   1.0000
     0.0000   0.0000   0.0000   0.0000

          k =-0.4062-1.2188 0.2812 (   153 PWs)   bands (ev):

   -49.5569 -17.2565 -15.8170 -15.1876  31.3225  32.6499  35.4045  36.8296
    40.7887  47.8953  54.5234  62.5100

     occupation numbers 
     1.0000   1.0000   1.0000   1.0000   1.0000   1.0000   1.0000   1.0000
     0.0000   0.0000   0.0000   0.0000

          k =-0.3438-1.1562 0.3438 (   153 PWs)   bands (ev):

   -49.5320 -17.1425 -16.0349 -15.1839  31.2688  32.6378  35.3566  37.1191
    40.4900  48.7722  54.4534  61.4869

     occupation numbers 
     1.0000   1.0000   1.0000   1.0000   1.0000   1.0000   1.0000   1.0000
     0.0000   0.0000   0.0000   0.0000

          k =-0.4062 0.4062 0.4062 (   147 PWs)   bands (ev):

   -49.8055 -17.3730 -14.8757 -14.8757  29.9130  34.9049  34.9049  38.4405
    40.8329  40.8329  56.7029  64.1877

     occupation numbers 
     1.0000   1.0000   1.0000   1.0000   1.0000   1.0000   1.0000   1.0762
     0.0000   0.0000   0.0000   0.0000

          k =-0.4688 0.4688 0.3438 (   151 PWs)   bands (ev):

   -49.7596 -17.4978 -15.0333 -14.9068  30.0204  34.6302  34.9177  38.0394
    40.5755  42.0547  56.0552  64.0296

     occupation numbers 
     1.0000   1.0000   1.0000   1.0000   1.0000   1.0000   1.0000   1.0046
     0.0000   0.0000   0.0000   0.0000

          k = 0.4688-0.4688 1.2812 (   152 PWs)   bands (ev):

   -49.6900 -17.4855 -15.2827 -14.9600  30.4885  33.9675  35.3654  37.0322
    40.5300  44.1916  55.4822  63.8370

     occupation numbers 
     1.0000   1.0000   1.0000   1.0000   1.0000   1.0000   1.0000   1.0000
     0.0000   0.0000   0.0000   0.0000

          k = 0.4062-0.4062 1.2188 (   152 PWs)   bands (ev):

   -49.6091 -17.3650 -15.5957 -15.0735  31.1817  33.2747  35.9845  36.1094
    40.3973  46.5344  54.9538  63.0628

     occupation numbers 
     1.0000   1.0000   1.0000   1.0000   1.0000   1.0000   1.0000   1.0000
     0.0000   0.0000   0.0000   0.0000

          k =-0.4062 0.5312 0.4062 (   153 PWs)   bands (ev):

   -49.7363 -17.6294 -15.0127 -14.9504  29.8746  34.4957  34.9471  38.1735
    41.1760  41.9822  55.4067  63.8752

     occupation numbers 
     1.0000   1.0000   1.0000   1.0000   1.0000   1.0000   1.0000   1.0232
     0.0000   0.0000   0.0000   0.0000

          k = 0.5312-0.4062 1.3438 (   154 PWs)   bands (ev):

   -49.6898 -17.6243 -15.1799 -14.9954  30.1948  34.0359  35.2324  37.3933
    40.9198  43.7647  54.9532  63.8577

     occupation numbers 
     1.0000   1.0000   1.0000   1.0000   1.0000   1.0000   1.0000   1.0000
     0.0000   0.0000   0.0000   0.0000

          k = 0.4688-0.3438 1.2812 (   154 PWs)   bands (ev):

   -49.6264 -17.4811 -15.4774 -15.0666  30.8392  33.2935  35.8675  36.3010
    40.8099  45.8875  54.6461  63.5491

     occupation numbers 
     1.0000   1.0000   1.0000   1.0000   1.0000   1.0000   1.0000   1.0000
     0.0000   0.0000   0.0000   0.0000

          k =-0.4062-1.3438 0.4062 (   153 PWs)   bands (ev):

   -49.6652 -17.5843 -15.2443 -15.0176  30.3438  33.8342  35.3871  37.1099
    41.0221  44.5213  54.7229  63.8078

     occupation numbers 
     1.0000   1.0000   1.0000   1.0000   1.0000   1.0000   1.0000   1.0000
     0.0000   0.0000   0.0000   0.0000

          k =-0.4688 0.4688 0.4688 (   156 PWs)   bands (ev):

   -49.7396 -17.8210 -14.9392 -14.9392  29.5544  34.7121  34.7121  39.6451
    40.9358  40.9358  54.8399  63.6201

     occupation numbers 
     1.0000   1.0000   1.0000   1.0000   1.0000   1.0000   1.0000   0.0000
     0.0000   0.0000   0.0000   0.0000

          k = 0.4688-0.4688 1.4062 (   156 PWs)   bands (ev):

   -49.7148 -17.8033 -15.0277 -14.9575  29.7332  34.4555  34.8665  38.6137
    40.9215  42.4171  54.6262  63.6815

     occupation numbers 
     1.0000   1.0000   1.0000   1.0000   1.0000   1.0000   1.0000   0.8456
     0.0000   0.0000   0.0000   0.0000

     the Fermi energy is    38.7818 ev

!    total energy              =    -246.93538935 Ry
     Harris-Foulkes estimate   =    -246.93538939 Ry
     estimated scf accuracy    <       0.00000007 Ry

     The total energy is the sum of the following terms:

     one-electron contribution =     -45.46854054 Ry
     hartree contribution      =      43.39854817 Ry
     xc contribution           =     -28.18308103 Ry
     ewald contribution        =    -216.68230157 Ry
     smearing contrib. (-TS)   =      -0.00001438 Ry

     convergence has been achieved in   5 iterations

     Writing output data file Fe_exc2.save

     init_run     :      5.70s CPU      6.61s WALL (       1 calls)
     electrons    :     63.53s CPU     72.15s WALL (       1 calls)

     Called by init_run:
     wfcinit      :      3.17s CPU      3.99s WALL (       1 calls)
     potinit      :      0.02s CPU      0.02s WALL (       1 calls)

     Called by electrons:
     c_bands      :     56.98s CPU     65.12s WALL (       6 calls)
     sum_band     :      6.33s CPU      6.79s WALL (       6 calls)
     v_of_rho     :      0.08s CPU      0.08s WALL (       6 calls)
     v_h          :      0.00s CPU      0.00s WALL (       6 calls)
     v_xc         :      0.08s CPU      0.08s WALL (       6 calls)
     newd         :      0.16s CPU      0.17s WALL (       6 calls)
     mix_rho      :      0.00s CPU      0.00s WALL (       6 calls)

     Called by c_bands:
     init_us_2    :      2.04s CPU      2.27s WALL (    5304 calls)
     cegterg      :     53.51s CPU     61.24s WALL (    2448 calls)

     Called by sum_band:
     sum_band:bec :      0.16s CPU      0.16s WALL (    2448 calls)
     addusdens    :      0.17s CPU      0.17s WALL (       6 calls)

     Called by *egterg:
     h_psi        :     29.32s CPU     34.10s WALL (    7754 calls)
     s_psi        :      3.30s CPU      3.70s WALL (    7754 calls)
     g_psi        :      0.20s CPU      0.26s WALL (    4898 calls)
     cdiaghg      :     10.83s CPU     12.33s WALL (    6938 calls)
     cegterg:over :      4.93s CPU      5.73s WALL (    4898 calls)
     cegterg:upda :      2.85s CPU      3.19s WALL (    4898 calls)
     cegterg:last :      1.82s CPU      1.95s WALL (    2448 calls)

     Called by h_psi:
     h_psi:vloc   :     22.78s CPU     26.33s WALL (    7754 calls)
     h_psi:vnl    :      6.32s CPU      7.51s WALL (    7754 calls)
     add_vuspsi   :      3.13s CPU      3.65s WALL (    7754 calls)

     General routines
     calbec       :      4.17s CPU      4.94s WALL (   10202 calls)
     fft          :      0.02s CPU      0.02s WALL (      80 calls)
     fftw         :     21.25s CPU     24.22s WALL (  182526 calls)
     davcio       :      0.01s CPU      0.03s WALL (     408 calls)

     Parallel routines
     fft_scatter  :      2.85s CPU      3.12s WALL (  182606 calls)

     PWSCF        :  1m14.24s CPU     1m24.29s WALL


   This run was terminated on:  21:18:24  18Feb2020            

=------------------------------------------------------------------------------=
   JOB DONE.
=------------------------------------------------------------------------------=
