
     Program PROJWFC v.5.1 starts on 30Apr2020 at 17:54:10 

     This program is part of the open-source Quantum ESPRESSO suite
     for quantum simulation of materials; please cite
         "P. Giannozzi et al., J. Phys.:Condens. Matter 21 395502 (2009);
          URL http://www.quantum-espresso.org", 
     in publications or presentations arising from this work. More details at
     http://www.quantum-espresso.org/quote

     Parallel version (MPI), running on     1 processors

   Info: using nr1, nr2, nr3 values from input

   Info: using nr1s, nr2s, nr3s values from input

     IMPORTANT: XC functional enforced from input :
     Exchange-correlation      = PBE ( 1  4  3  4 0)
     Any further DFT definition will be discarded
     Please, verify this is what you really want

               file C.pbe-rrkjus.UPF: wavefunction(s)  2S 2P renormalized

     G-vector sticks info
     --------------------
     sticks:   dense  smooth     PW     G-vecs:    dense   smooth      PW
     Sum         595     241     85                96043    24369    4587

     Generating pointlists ...
     new r_m :   0.2381 (alat units)  1.1104 (a.u.) for type    1

     negative rho (up, down):  6.898E-07 6.898E-07

     Gaussian broadening (read from input): ngauss,degauss=   0    0.010000


     Calling projwave .... 

     Atomic states used for projection
     (read from pseudopotential files):

     state #   1: atom   1 (C  ), wfc  1 (l=0 m= 1)
     state #   2: atom   1 (C  ), wfc  2 (l=1 m= 1)
     state #   3: atom   1 (C  ), wfc  2 (l=1 m= 2)
     state #   4: atom   1 (C  ), wfc  2 (l=1 m= 3)
     state #   5: atom   2 (C  ), wfc  1 (l=0 m= 1)
     state #   6: atom   2 (C  ), wfc  2 (l=1 m= 1)
     state #   7: atom   2 (C  ), wfc  2 (l=1 m= 2)
     state #   8: atom   2 (C  ), wfc  2 (l=1 m= 3)
     state #   9: atom   3 (C  ), wfc  1 (l=0 m= 1)
     state #  10: atom   3 (C  ), wfc  2 (l=1 m= 1)
     state #  11: atom   3 (C  ), wfc  2 (l=1 m= 2)
     state #  12: atom   3 (C  ), wfc  2 (l=1 m= 3)
     state #  13: atom   4 (C  ), wfc  1 (l=0 m= 1)
     state #  14: atom   4 (C  ), wfc  2 (l=1 m= 1)
     state #  15: atom   4 (C  ), wfc  2 (l=1 m= 2)
     state #  16: atom   4 (C  ), wfc  2 (l=1 m= 3)

 k =   0.0000000000  0.0000000000  0.0000000000
==== e(   1) =   -20.01774 eV ==== 
     psi = 0.244*[#   1]+0.244*[#   5]+0.244*[#   9]+0.244*[#  13]+
    |psi|^2 = 0.979
==== e(   2) =   -19.91406 eV ==== 
     psi = 0.246*[#   1]+0.246*[#   5]+0.246*[#   9]+0.246*[#  13]+
    |psi|^2 = 0.986
==== e(   3) =    -8.46575 eV ==== 
     psi = 0.237*[#   2]+0.237*[#   6]+0.237*[#  10]+0.237*[#  14]+
    |psi|^2 = 0.948
==== e(   4) =    -7.70095 eV ==== 
     psi = 0.241*[#   2]+0.241*[#   6]+0.241*[#  10]+0.241*[#  14]+
    |psi|^2 = 0.964
==== e(   5) =    -3.56783 eV ==== 
     psi = 0.249*[#   4]+0.249*[#   8]+0.249*[#  12]+0.249*[#  16]+
    |psi|^2 = 0.997
==== e(   6) =    -3.56620 eV ==== 
     psi = 0.249*[#   3]+0.249*[#   7]+0.249*[#  11]+0.249*[#  15]+
    |psi|^2 = 0.997
==== e(   7) =    -3.55667 eV ==== 
     psi = 0.249*[#  12]+0.249*[#  16]+0.249*[#   4]+0.249*[#   8]+
    |psi|^2 = 0.997
==== e(   8) =    -3.55504 eV ==== 
     psi = 0.249*[#  11]+0.249*[#  15]+0.249*[#   3]+0.249*[#   7]+
    |psi|^2 = 0.997
==== e(   9) =     2.89262 eV ==== 
     psi = 0.002*[#   1]+0.002*[#   5]+0.002*[#   9]+0.002*[#  13]+
    |psi|^2 = 0.013
==== e(  10) =     3.29490 eV ==== 
     psi = 0.005*[#   2]+0.005*[#   6]+0.005*[#  10]+0.005*[#  14]+
    |psi|^2 = 0.021
==== e(  11) =     4.01585 eV ==== 
     psi = 
    |psi|^2 = 0.002
==== e(  12) =     5.22873 eV ==== 
     psi = 0.002*[#   2]+0.002*[#   6]+0.002*[#  10]+0.002*[#  14]+
    |psi|^2 = 0.008

 k =   0.0000000000  0.0240562612  0.0000000000
==== e(   1) =   -20.00748 eV ==== 
     psi = 0.244*[#   1]+0.244*[#   5]+0.244*[#   9]+0.244*[#  13]+
    |psi|^2 = 0.979
==== e(   2) =   -19.90387 eV ==== 
     psi = 0.245*[#   1]+0.245*[#   5]+0.245*[#   9]+0.245*[#  13]+
    |psi|^2 = 0.986
==== e(   3) =    -8.45340 eV ==== 
     psi = 0.237*[#   2]+0.237*[#   6]+0.237*[#  10]+0.237*[#  14]+
    |psi|^2 = 0.948
==== e(   4) =    -7.68889 eV ==== 
     psi = 0.241*[#   2]+0.241*[#   6]+0.241*[#  10]+0.241*[#  14]+
    |psi|^2 = 0.965
==== e(   5) =    -3.61039 eV ==== 
     psi = 0.249*[#   4]+0.249*[#   8]+0.249*[#  12]+0.249*[#  16]+
    |psi|^2 = 0.997
==== e(   6) =    -3.59896 eV ==== 
     psi = 0.249*[#  12]+0.249*[#  16]+0.249*[#   4]+0.249*[#   8]+
    |psi|^2 = 0.997
==== e(   7) =    -3.58878 eV ==== 
     psi = 0.249*[#   3]+0.249*[#   7]+0.249*[#  11]+0.249*[#  15]+
    |psi|^2 = 0.997
==== e(   8) =    -3.57753 eV ==== 
     psi = 0.249*[#  11]+0.249*[#  15]+0.249*[#   3]+0.249*[#   7]+
    |psi|^2 = 0.997
==== e(   9) =     2.90640 eV ==== 
     psi = 0.002*[#   1]+0.002*[#   5]+0.002*[#   9]+0.002*[#  13]+
    |psi|^2 = 0.014
==== e(  10) =     3.30885 eV ==== 
     psi = 0.005*[#   2]+0.005*[#   6]+0.005*[#  10]+0.005*[#  14]+
    |psi|^2 = 0.022
==== e(  11) =     4.02993 eV ==== 
     psi = 
    |psi|^2 = 0.003
==== e(  12) =     5.24273 eV ==== 
     psi = 0.002*[#   2]+0.002*[#   6]+0.002*[#  10]+0.002*[#  14]+
    |psi|^2 = 0.008

 k =   0.0000000000  0.0481125224  0.0000000000
==== e(   1) =   -19.97670 eV ==== 
     psi = 0.241*[#   1]+0.241*[#   5]+0.241*[#   9]+0.241*[#  13]+0.004*[#   4]+
          +0.004*[#   8]+0.004*[#  12]+0.004*[#  16]+
    |psi|^2 = 0.979
==== e(   2) =   -19.87330 eV ==== 
     psi = 0.243*[#   1]+0.243*[#   5]+0.243*[#   9]+0.243*[#  13]+0.004*[#   4]+
          +0.004*[#   8]+0.004*[#  12]+0.004*[#  16]+
    |psi|^2 = 0.986
==== e(   3) =    -8.41632 eV ==== 
     psi = 0.237*[#   2]+0.237*[#   6]+0.237*[#  10]+0.237*[#  14]+
    |psi|^2 = 0.949
==== e(   4) =    -7.65268 eV ==== 
     psi = 0.241*[#   2]+0.241*[#   6]+0.241*[#  10]+0.241*[#  14]+
    |psi|^2 = 0.965
==== e(   5) =    -3.73617 eV ==== 
     psi = 0.247*[#   4]+0.247*[#   8]+0.247*[#  12]+0.247*[#  16]+0.002*[#   1]+
          +0.002*[#   5]+0.002*[#   9]+0.002*[#  13]+
    |psi|^2 = 0.997
==== e(   6) =    -3.72408 eV ==== 
     psi = 0.247*[#  12]+0.247*[#  16]+0.247*[#   4]+0.247*[#   8]+0.002*[#   1]+
          +0.002*[#   5]+0.002*[#   9]+0.002*[#  13]+
    |psi|^2 = 0.997
==== e(   7) =    -3.65504 eV ==== 
     psi = 0.249*[#   3]+0.249*[#   7]+0.249*[#  11]+0.249*[#  15]+
    |psi|^2 = 0.997
==== e(   8) =    -3.64365 eV ==== 
     psi = 0.249*[#  11]+0.249*[#  15]+0.249*[#   3]+0.249*[#   7]+
    |psi|^2 = 0.997
==== e(   9) =     2.94773 eV ==== 
     psi = 0.002*[#   1]+0.002*[#   5]+0.002*[#   9]+0.002*[#  13]+0.001*[#   4]+
          +0.001*[#   8]+0.001*[#  12]+0.001*[#  16]+
    |psi|^2 = 0.017
==== e(  10) =     3.35072 eV ==== 
     psi = 0.005*[#   2]+0.005*[#   6]+0.005*[#  10]+0.005*[#  14]+
    |psi|^2 = 0.022
==== e(  11) =     4.07219 eV ==== 
     psi = 
    |psi|^2 = 0.003
==== e(  12) =     5.28471 eV ==== 
     psi = 0.002*[#   2]+0.002*[#   6]+0.002*[#  10]+0.002*[#  14]+
    |psi|^2 = 0.008

 k =   0.0000000000  0.0721687836  0.0000000000
==== e(   1) =   -19.92542 eV ==== 
     psi = 0.236*[#   1]+0.236*[#   5]+0.236*[#   9]+0.236*[#  13]+0.008*[#   4]+
          +0.008*[#   8]+0.008*[#  12]+0.008*[#  16]+
    |psi|^2 = 0.979
==== e(   2) =   -19.82235 eV ==== 
     psi = 0.238*[#   1]+0.238*[#   5]+0.238*[#   9]+0.238*[#  13]+0.008*[#   4]+
          +0.008*[#   8]+0.008*[#  12]+0.008*[#  16]+
    |psi|^2 = 0.986
==== e(   3) =    -8.35456 eV ==== 
     psi = 0.237*[#   2]+0.237*[#   6]+0.237*[#  10]+0.237*[#  14]+
    |psi|^2 = 0.950
==== e(   4) =    -7.59238 eV ==== 
     psi = 0.241*[#   2]+0.241*[#   6]+0.241*[#  10]+0.241*[#  14]+
    |psi|^2 = 0.966
==== e(   5) =    -3.94031 eV ==== 
     psi = 0.244*[#   4]+0.244*[#   8]+0.244*[#  12]+0.244*[#  16]+0.005*[#   1]+
          +0.005*[#   5]+0.005*[#   9]+0.005*[#  13]+
    |psi|^2 = 0.997
==== e(   6) =    -3.92704 eV ==== 
     psi = 0.244*[#  12]+0.244*[#  16]+0.244*[#   4]+0.244*[#   8]+0.005*[#   1]+
          +0.005*[#   5]+0.005*[#   9]+0.005*[#  13]+
    |psi|^2 = 0.997
==== e(   7) =    -3.76156 eV ==== 
     psi = 0.250*[#   3]+0.250*[#   7]+0.249*[#  11]+0.249*[#  15]+
    |psi|^2 = 0.997
==== e(   8) =    -3.74998 eV ==== 
     psi = 0.249*[#  11]+0.249*[#  15]+0.249*[#   3]+0.249*[#   7]+
    |psi|^2 = 0.997
==== e(   9) =     3.01663 eV ==== 
     psi = 0.003*[#   4]+0.003*[#   8]+0.003*[#  12]+0.003*[#  16]+0.001*[#   1]+
          +0.001*[#   5]+0.001*[#   9]+0.001*[#  13]+
    |psi|^2 = 0.021
==== e(  10) =     3.42048 eV ==== 
     psi = 0.005*[#   2]+0.005*[#   6]+0.005*[#  10]+0.005*[#  14]+
    |psi|^2 = 0.023
==== e(  11) =     4.14262 eV ==== 
     psi = 
    |psi|^2 = 0.004
==== e(  12) =     5.35468 eV ==== 
     psi = 0.002*[#   2]+0.002*[#   6]+0.002*[#  10]+0.002*[#  14]+
    |psi|^2 = 0.008

 k =   0.0000000000  0.0962250449  0.0000000000
==== e(   1) =   -19.85368 eV ==== 
     psi = 0.231*[#   1]+0.231*[#   5]+0.231*[#   9]+0.231*[#  13]+0.014*[#   4]+
          +0.014*[#   8]+0.014*[#  12]+0.014*[#  16]+
    |psi|^2 = 0.979
==== e(   2) =   -19.75108 eV ==== 
     psi = 0.233*[#   1]+0.233*[#   5]+0.233*[#   9]+0.233*[#  13]+0.013*[#   4]+
          +0.013*[#   8]+0.013*[#  12]+0.013*[#  16]+
    |psi|^2 = 0.985
==== e(   3) =    -8.26823 eV ==== 
     psi = 0.238*[#   2]+0.238*[#   6]+0.238*[#  10]+0.238*[#  14]+
    |psi|^2 = 0.952
==== e(   4) =    -7.50812 eV ==== 
     psi = 0.242*[#   2]+0.242*[#   6]+0.242*[#  10]+0.242*[#  14]+
    |psi|^2 = 0.968
==== e(   5) =    -4.21554 eV ==== 
     psi = 0.241*[#   4]+0.241*[#   8]+0.240*[#  12]+0.240*[#  16]+0.009*[#   1]+
          +0.009*[#   5]+0.009*[#   9]+0.009*[#  13]+
    |psi|^2 = 0.997
==== e(   6) =    -4.20066 eV ==== 
     psi = 0.241*[#  12]+0.241*[#  16]+0.241*[#   4]+0.241*[#   8]+0.009*[#   1]+
          +0.009*[#   5]+0.009*[#   9]+0.009*[#  13]+
    |psi|^2 = 0.997
==== e(   7) =    -3.90316 eV ==== 
     psi = 0.250*[#   3]+0.250*[#   7]+0.249*[#  11]+0.249*[#  15]+
    |psi|^2 = 0.997
==== e(   8) =    -3.89116 eV ==== 
     psi = 0.249*[#  11]+0.249*[#  15]+0.249*[#   3]+0.249*[#   7]+
    |psi|^2 = 0.997
==== e(   9) =     3.11310 eV ==== 
     psi = 0.005*[#   4]+0.005*[#   8]+0.005*[#  12]+0.005*[#  16]+0.001*[#   1]+
          +0.001*[#   5]+0.001*[#   9]+0.001*[#  13]+
    |psi|^2 = 0.026
==== e(  10) =     3.51814 eV ==== 
     psi = 0.004*[#   2]+0.004*[#   6]+0.004*[#  10]+0.004*[#  14]+0.001*[#   4]+
          +0.001*[#   8]+0.001*[#  12]+0.001*[#  16]+
    |psi|^2 = 0.024
==== e(  11) =     4.24124 eV ==== 
     psi = 
    |psi|^2 = 0.005
==== e(  12) =     5.45262 eV ==== 
     psi = 0.001*[#   2]+0.001*[#   6]+0.001*[#  10]+0.001*[#  14]+
    |psi|^2 = 0.008

 k =   0.0000000000  0.1202813061  0.0000000000
==== e(   1) =   -19.76153 eV ==== 
     psi = 0.224*[#   1]+0.224*[#   5]+0.224*[#   9]+0.224*[#  13]+0.020*[#   4]+
          +0.020*[#   8]+0.020*[#  12]+0.020*[#  16]+
    |psi|^2 = 0.979
==== e(   2) =   -19.65952 eV ==== 
     psi = 0.227*[#   1]+0.227*[#   5]+0.227*[#   9]+0.227*[#  13]+0.019*[#   4]+
          +0.019*[#   8]+0.019*[#  12]+0.019*[#  16]+
    |psi|^2 = 0.985
==== e(   3) =    -8.15748 eV ==== 
     psi = 0.238*[#   2]+0.238*[#   6]+0.238*[#  10]+0.238*[#  14]+
    |psi|^2 = 0.954
==== e(   4) =    -7.40006 eV ==== 
     psi = 0.242*[#   2]+0.242*[#   6]+0.242*[#  10]+0.242*[#  14]+
    |psi|^2 = 0.970
==== e(   5) =    -4.55300 eV ==== 
     psi = 0.236*[#   4]+0.236*[#   8]+0.236*[#  12]+0.236*[#  16]+0.013*[#   1]+
          +0.013*[#   5]+0.013*[#   9]+0.013*[#  13]+
    |psi|^2 = 0.996
==== e(   6) =    -4.53621 eV ==== 
     psi = 0.237*[#  12]+0.237*[#  16]+0.236*[#   4]+0.236*[#   8]+0.013*[#   1]+
          +0.013*[#   5]+0.013*[#   9]+0.013*[#  13]+
    |psi|^2 = 0.997
==== e(   7) =    -4.07358 eV ==== 
     psi = 0.250*[#   3]+0.250*[#   7]+0.249*[#  11]+0.249*[#  15]+
    |psi|^2 = 0.997
==== e(   8) =    -4.06113 eV ==== 
     psi = 0.249*[#  11]+0.249*[#  15]+0.249*[#   3]+0.249*[#   7]+
    |psi|^2 = 0.997
==== e(   9) =     3.23712 eV ==== 
     psi = 0.006*[#   4]+0.006*[#   8]+0.006*[#  12]+0.006*[#  16]+
    |psi|^2 = 0.031
==== e(  10) =     3.64364 eV ==== 
     psi = 0.004*[#   2]+0.004*[#   6]+0.004*[#  10]+0.004*[#  14]+0.002*[#   4]+
          +0.002*[#   8]+0.002*[#  12]+0.002*[#  16]+
    |psi|^2 = 0.024
==== e(  11) =     4.36803 eV ==== 
     psi = 0.001*[#   4]+0.001*[#   8]+0.001*[#  12]+0.001*[#  16]+
    |psi|^2 = 0.006
==== e(  12) =     5.57851 eV ==== 
     psi = 0.001*[#   2]+0.001*[#   6]+0.001*[#  10]+0.001*[#  14]+
    |psi|^2 = 0.008

 k =   0.0000000000  0.1443375673  0.0000000000
==== e(   1) =   -19.64901 eV ==== 
     psi = 0.217*[#   1]+0.217*[#   5]+0.217*[#   9]+0.217*[#  13]+0.027*[#   4]+
          +0.027*[#   8]+0.027*[#  12]+0.027*[#  16]+
    |psi|^2 = 0.979
==== e(   2) =   -19.54774 eV ==== 
     psi = 0.220*[#   1]+0.220*[#   5]+0.220*[#   9]+0.220*[#  13]+0.026*[#   4]+
          +0.026*[#   8]+0.026*[#  12]+0.026*[#  16]+
    |psi|^2 = 0.985
==== e(   3) =    -8.02243 eV ==== 
     psi = 0.239*[#   2]+0.239*[#   6]+0.239*[#  10]+0.239*[#  14]+
    |psi|^2 = 0.957
==== e(   4) =    -7.26830 eV ==== 
     psi = 0.243*[#   2]+0.243*[#   6]+0.243*[#  10]+0.243*[#  14]+
    |psi|^2 = 0.972
==== e(   5) =    -4.94342 eV ==== 
     psi = 0.231*[#   4]+0.231*[#   8]+0.231*[#  12]+0.231*[#  16]+0.018*[#   1]+
          +0.018*[#   5]+0.018*[#   9]+0.018*[#  13]+
    |psi|^2 = 0.996
==== e(   6) =    -4.92440 eV ==== 
     psi = 0.232*[#  12]+0.232*[#  16]+0.232*[#   4]+0.232*[#   8]+0.018*[#   1]+
          +0.018*[#   5]+0.018*[#   9]+0.018*[#  13]+
    |psi|^2 = 0.997
==== e(   7) =    -4.26598 eV ==== 
     psi = 0.250*[#   3]+0.250*[#   7]+0.249*[#  11]+0.249*[#  15]+
    |psi|^2 = 0.997
==== e(   8) =    -4.25314 eV ==== 
     psi = 0.250*[#  11]+0.250*[#  15]+0.249*[#   3]+0.249*[#   7]+
    |psi|^2 = 0.997
==== e(   9) =     3.38868 eV ==== 
     psi = 0.008*[#   4]+0.008*[#   8]+0.008*[#  12]+0.008*[#  16]+
    |psi|^2 = 0.036
==== e(  10) =     3.79697 eV ==== 
     psi = 0.004*[#   2]+0.004*[#   6]+0.004*[#  10]+0.004*[#  14]+0.002*[#   4]+
          +0.002*[#   8]+0.002*[#  12]+0.002*[#  16]+
    |psi|^2 = 0.025
==== e(  11) =     4.52299 eV ==== 
     psi = 0.001*[#   4]+0.001*[#   8]+0.001*[#  12]+0.001*[#  16]+
    |psi|^2 = 0.007
==== e(  12) =     5.73231 eV ==== 
     psi = 0.001*[#   2]+0.001*[#   6]+0.001*[#  10]+0.001*[#  14]+
    |psi|^2 = 0.008

 k =   0.0000000000  0.1683938285  0.0000000000
==== e(   1) =   -19.51622 eV ==== 
     psi = 0.210*[#   1]+0.210*[#   5]+0.210*[#   9]+0.210*[#  13]+0.035*[#   4]+
          +0.035*[#   8]+0.035*[#  12]+0.035*[#  16]+
    |psi|^2 = 0.978
==== e(   2) =   -19.41581 eV ==== 
     psi = 0.212*[#   1]+0.212*[#   5]+0.212*[#   9]+0.212*[#  13]+0.034*[#   4]+
          +0.034*[#   8]+0.034*[#  12]+0.034*[#  16]+
    |psi|^2 = 0.985
==== e(   3) =    -7.86337 eV ==== 
     psi = 0.240*[#   2]+0.240*[#   6]+0.240*[#  10]+0.240*[#  14]+
    |psi|^2 = 0.960
==== e(   4) =    -7.11322 eV ==== 
     psi = 0.243*[#   2]+0.243*[#   6]+0.243*[#  10]+0.243*[#  14]+
    |psi|^2 = 0.975
==== e(   5) =    -5.37764 eV ==== 
     psi = 0.226*[#   4]+0.226*[#   8]+0.226*[#  12]+0.226*[#  16]+0.023*[#   1]+
          +0.023*[#   5]+0.023*[#   9]+0.023*[#  13]+
    |psi|^2 = 0.995
==== e(   6) =    -5.35618 eV ==== 
     psi = 0.227*[#  12]+0.227*[#  16]+0.226*[#   4]+0.226*[#   8]+0.023*[#   1]+
          +0.023*[#   5]+0.023*[#   9]+0.023*[#  13]+
    |psi|^2 = 0.996
==== e(   7) =    -4.47420 eV ==== 
     psi = 0.250*[#   3]+0.250*[#   7]+0.249*[#  11]+0.249*[#  15]+
    |psi|^2 = 0.998
==== e(   8) =    -4.46091 eV ==== 
     psi = 0.250*[#  11]+0.250*[#  15]+0.249*[#   3]+0.249*[#   7]+
    |psi|^2 = 0.997
==== e(   9) =     3.56774 eV ==== 
     psi = 0.009*[#   4]+0.009*[#   8]+0.009*[#  12]+0.009*[#  16]+
    |psi|^2 = 0.040
==== e(  10) =     3.97803 eV ==== 
     psi = 0.003*[#   2]+0.003*[#   6]+0.003*[#  10]+0.003*[#  14]+0.003*[#   4]+
          +0.003*[#   8]+0.003*[#  12]+0.003*[#  16]+
    |psi|^2 = 0.025
==== e(  11) =     4.70610 eV ==== 
     psi = 0.002*[#   4]+0.002*[#   8]+0.002*[#  12]+0.002*[#  16]+
    |psi|^2 = 0.007
==== e(  12) =     5.91392 eV ==== 
     psi = 0.001*[#   2]+0.001*[#   6]+0.001*[#  10]+0.001*[#  14]+
    |psi|^2 = 0.008

 k =   0.0000000000  0.1924500897  0.0000000000
==== e(   1) =   -19.36328 eV ==== 
     psi = 0.202*[#   1]+0.202*[#   5]+0.202*[#   9]+0.202*[#  13]+0.042*[#   4]+
          +0.042*[#   8]+0.042*[#  12]+0.042*[#  16]+
    |psi|^2 = 0.978
==== e(   2) =   -19.26385 eV ==== 
     psi = 0.205*[#   1]+0.205*[#   5]+0.205*[#   9]+0.205*[#  13]+0.041*[#   4]+
          +0.041*[#   8]+0.041*[#  12]+0.041*[#  16]+
    |psi|^2 = 0.984
==== e(   3) =    -7.68060 eV ==== 
     psi = 0.241*[#   2]+0.241*[#   6]+0.241*[#  10]+0.241*[#  14]+
    |psi|^2 = 0.964
==== e(   4) =    -6.93515 eV ==== 
     psi = 0.244*[#   2]+0.244*[#   6]+0.244*[#  10]+0.244*[#  14]+
    |psi|^2 = 0.977
==== e(   5) =    -5.84716 eV ==== 
     psi = 0.220*[#   4]+0.220*[#   8]+0.220*[#  12]+0.220*[#  16]+0.028*[#   1]+
          +0.028*[#   5]+0.028*[#   9]+0.028*[#  13]+
    |psi|^2 = 0.994
==== e(   6) =    -5.82320 eV ==== 
     psi = 0.221*[#  12]+0.221*[#  16]+0.221*[#   4]+0.221*[#   8]+0.028*[#   1]+
          +0.028*[#   5]+0.028*[#   9]+0.028*[#  13]+
    |psi|^2 = 0.996
==== e(   7) =    -4.69231 eV ==== 
     psi = 0.250*[#   3]+0.250*[#   7]+0.249*[#  11]+0.249*[#  15]+
    |psi|^2 = 0.997
==== e(   8) =    -4.67856 eV ==== 
     psi = 0.250*[#  11]+0.250*[#  15]+0.249*[#   3]+0.249*[#   7]+
    |psi|^2 = 0.997
==== e(   9) =     3.77422 eV ==== 
     psi = 0.010*[#   4]+0.010*[#   8]+0.010*[#  12]+0.010*[#  16]+
    |psi|^2 = 0.042
==== e(  10) =     4.18672 eV ==== 
     psi = 0.003*[#   2]+0.003*[#   4]+0.003*[#   6]+0.003*[#   8]+0.003*[#  10]+
          +0.003*[#  12]+0.003*[#  14]+0.003*[#  16]+
    |psi|^2 = 0.025
==== e(  11) =     4.91731 eV ==== 
     psi = 0.002*[#   4]+0.002*[#   8]+0.002*[#  12]+0.002*[#  16]+
    |psi|^2 = 0.007
==== e(  12) =     6.12316 eV ==== 
     psi = 0.001*[#   2]+0.001*[#   6]+
    |psi|^2 = 0.007

 k =   0.0000000000  0.2165063509  0.0000000000
==== e(   1) =   -19.19029 eV ==== 
     psi = 0.195*[#   1]+0.195*[#   5]+0.195*[#   9]+0.195*[#  13]+0.050*[#   4]+
          +0.050*[#   8]+0.050*[#  12]+0.050*[#  16]+
    |psi|^2 = 0.978
==== e(   2) =   -19.09194 eV ==== 
     psi = 0.197*[#   1]+0.197*[#   5]+0.197*[#   9]+0.197*[#  13]+0.049*[#   4]+
          +0.049*[#   8]+0.049*[#  12]+0.049*[#  16]+
    |psi|^2 = 0.984
==== e(   3) =    -7.47446 eV ==== 
     psi = 0.242*[#   2]+0.242*[#   6]+0.242*[#  10]+0.242*[#  14]+
    |psi|^2 = 0.967
==== e(   4) =    -6.73448 eV ==== 
     psi = 0.245*[#   2]+0.245*[#   6]+0.245*[#  10]+0.245*[#  14]+
    |psi|^2 = 0.980
==== e(   5) =    -6.34437 eV ==== 
     psi = 0.215*[#   4]+0.215*[#   8]+0.215*[#  12]+0.215*[#  16]+0.033*[#   1]+
          +0.033*[#   5]+0.033*[#   9]+0.033*[#  13]+
    |psi|^2 = 0.993
==== e(   6) =    -6.31770 eV ==== 
     psi = 0.216*[#  12]+0.216*[#  16]+0.216*[#   4]+0.216*[#   8]+0.033*[#   1]+
          +0.033*[#   5]+0.033*[#   9]+0.033*[#  13]+
    |psi|^2 = 0.995
==== e(   7) =    -4.91496 eV ==== 
     psi = 0.249*[#   3]+0.249*[#   7]+0.249*[#  11]+0.249*[#  15]+
    |psi|^2 = 0.997
==== e(   8) =    -4.90075 eV ==== 
     psi = 0.249*[#  11]+0.249*[#  15]+0.249*[#   3]+0.249*[#   7]+
    |psi|^2 = 0.997
==== e(   9) =     4.00803 eV ==== 
     psi = 0.010*[#   4]+0.010*[#   8]+0.010*[#  12]+0.010*[#  16]+
    |psi|^2 = 0.043
==== e(  10) =     4.42287 eV ==== 
     psi = 0.003*[#   4]+0.003*[#   8]+0.003*[#  12]+0.003*[#  16]+0.003*[#   2]+
          +0.003*[#   6]+0.003*[#  10]+0.003*[#  14]+
    |psi|^2 = 0.024
==== e(  11) =     5.15657 eV ==== 
     psi = 0.002*[#   4]+0.002*[#   8]+0.002*[#  12]+0.002*[#  16]+
    |psi|^2 = 0.007
==== e(  12) =     6.35965 eV ==== 
     psi = 
    |psi|^2 = 0.007

 k =   0.0000000000  0.2405626122  0.0000000000
==== e(   1) =   -18.99736 eV ==== 
     psi = 0.187*[#   1]+0.187*[#   5]+0.187*[#   9]+0.187*[#  13]+0.057*[#   4]+
          +0.057*[#   8]+0.057*[#  12]+0.057*[#  16]+
    |psi|^2 = 0.977
==== e(   2) =   -18.90024 eV ==== 
     psi = 0.190*[#   1]+0.190*[#   5]+0.190*[#   9]+0.190*[#  13]+0.056*[#   4]+
          +0.056*[#   8]+0.056*[#  12]+0.056*[#  16]+
    |psi|^2 = 0.984
==== e(   3) =    -7.24547 eV ==== 
     psi = 0.243*[#   2]+0.243*[#   6]+0.243*[#  10]+0.243*[#  14]+
    |psi|^2 = 0.971
==== e(   4) =    -6.86248 eV ==== 
     psi = 0.210*[#   4]+0.210*[#   8]+0.209*[#  12]+0.209*[#  16]+0.039*[#   1]+
          +0.039*[#   5]+0.039*[#   9]+0.039*[#  13]+
    |psi|^2 = 0.992
==== e(   5) =    -6.83333 eV ==== 
     psi = 0.210*[#  12]+0.210*[#  16]+0.210*[#   4]+0.210*[#   8]+0.038*[#   1]+
          +0.038*[#   5]+0.038*[#   9]+0.038*[#  13]+
    |psi|^2 = 0.995
==== e(   6) =    -6.51145 eV ==== 
     psi = 0.245*[#   2]+0.245*[#   6]+0.245*[#  10]+0.245*[#  14]+
    |psi|^2 = 0.982
==== e(   7) =    -5.13768 eV ==== 
     psi = 0.249*[#   3]+0.249*[#   7]+0.249*[#  11]+0.249*[#  15]+
    |psi|^2 = 0.997
==== e(   8) =    -5.12306 eV ==== 
     psi = 0.249*[#  11]+0.249*[#  15]+0.249*[#   3]+0.249*[#   7]+
    |psi|^2 = 0.997
==== e(   9) =     4.26906 eV ==== 
     psi = 0.010*[#   4]+0.010*[#   8]+0.010*[#  12]+0.010*[#  16]+
    |psi|^2 = 0.042
==== e(  10) =     4.68615 eV ==== 
     psi = 0.003*[#   4]+0.003*[#   8]+0.003*[#  12]+0.003*[#  16]+0.002*[#   2]+
          +0.002*[#   6]+0.002*[#  10]+0.002*[#  14]+
    |psi|^2 = 0.023
==== e(  11) =     5.42376 eV ==== 
     psi = 0.002*[#   4]+0.002*[#   8]+0.002*[#  12]+0.002*[#  16]+
    |psi|^2 = 0.007
==== e(  12) =     6.62227 eV ==== 
     psi = 0.001*[#   2]+0.001*[#   6]+0.001*[#  10]+0.001*[#  14]+
    |psi|^2 = 0.007

 k =   0.0000000000  0.2646188734  0.0000000000
==== e(   1) =   -18.78469 eV ==== 
     psi = 0.181*[#   1]+0.181*[#   5]+0.181*[#   9]+0.181*[#  13]+0.064*[#   4]+
          +0.064*[#   8]+0.064*[#  12]+0.064*[#  16]+
    |psi|^2 = 0.977
==== e(   2) =   -18.68891 eV ==== 
     psi = 0.183*[#   1]+0.183*[#   5]+0.183*[#   9]+0.183*[#  13]+0.063*[#   4]+
          +0.063*[#   8]+0.063*[#  12]+0.063*[#  16]+
    |psi|^2 = 0.984
==== e(   3) =    -7.39607 eV ==== 
     psi = 0.204*[#   4]+0.204*[#   8]+0.204*[#  12]+0.204*[#  16]+0.044*[#   1]+
          +0.044*[#   5]+0.044*[#   9]+0.044*[#  13]+
    |psi|^2 = 0.992
==== e(   4) =    -7.36395 eV ==== 
     psi = 0.205*[#   4]+0.205*[#   8]+0.205*[#  12]+0.205*[#  16]+0.043*[#   1]+
          +0.043*[#   5]+0.043*[#   9]+0.043*[#  13]+
    |psi|^2 = 0.994
==== e(   5) =    -6.99389 eV ==== 
     psi = 0.243*[#   2]+0.243*[#   6]+0.243*[#  10]+0.243*[#  14]+
    |psi|^2 = 0.975
==== e(   6) =    -6.26719 eV ==== 
     psi = 0.246*[#   2]+0.246*[#   6]+0.246*[#  10]+0.246*[#  14]+
    |psi|^2 = 0.985
==== e(   7) =    -5.35669 eV ==== 
     psi = 0.249*[#   3]+0.249*[#   7]+0.249*[#  11]+0.249*[#  15]+
    |psi|^2 = 0.997
==== e(   8) =    -5.34162 eV ==== 
     psi = 0.249*[#  11]+0.249*[#  15]+0.249*[#   3]+0.249*[#   7]+
    |psi|^2 = 0.997
==== e(   9) =     4.55711 eV ==== 
     psi = 0.009*[#   4]+0.009*[#   8]+0.009*[#  12]+0.009*[#  16]+
    |psi|^2 = 0.040
==== e(  10) =     4.97587 eV ==== 
     psi = 0.003*[#   4]+0.003*[#   8]+0.003*[#  12]+0.003*[#  16]+0.002*[#   2]+
          +0.002*[#   6]+0.002*[#  10]+0.002*[#  14]+
    |psi|^2 = 0.022
==== e(  11) =     5.71857 eV ==== 
     psi = 0.001*[#   4]+0.001*[#   8]+0.001*[#  12]+0.001*[#  16]+
    |psi|^2 = 0.006
==== e(  12) =     6.90468 eV ==== 
     psi = 0.006*[#   2]+0.006*[#   6]+0.005*[#  10]+0.005*[#  14]+
    |psi|^2 = 0.025

 k =   0.0000000000  0.2886751346  0.0000000000
==== e(   1) =   -18.55247 eV ==== 
     psi = 0.174*[#   1]+0.174*[#   5]+0.174*[#   9]+0.174*[#  13]+0.070*[#   4]+
          +0.070*[#   8]+0.070*[#  12]+0.070*[#  16]+
    |psi|^2 = 0.977
==== e(   2) =   -18.45813 eV ==== 
     psi = 0.177*[#   1]+0.177*[#   5]+0.177*[#   9]+0.177*[#  13]+0.069*[#   4]+
          +0.069*[#   8]+0.069*[#  12]+0.069*[#  16]+
    |psi|^2 = 0.984
==== e(   3) =    -7.93955 eV ==== 
     psi = 0.199*[#   4]+0.199*[#   8]+0.199*[#  12]+0.199*[#  16]+0.049*[#   1]+
          +0.049*[#   5]+0.049*[#   9]+0.049*[#  13]+
    |psi|^2 = 0.991
==== e(   4) =    -7.90470 eV ==== 
     psi = 0.200*[#   4]+0.200*[#   8]+0.200*[#  12]+0.200*[#  16]+0.048*[#   1]+
          +0.048*[#   5]+0.048*[#   9]+0.048*[#  13]+
    |psi|^2 = 0.994
==== e(   5) =    -6.72103 eV ==== 
     psi = 0.244*[#   2]+0.244*[#   6]+0.244*[#  10]+0.244*[#  14]+
    |psi|^2 = 0.978
==== e(   6) =    -6.00219 eV ==== 
     psi = 0.247*[#   2]+0.247*[#   6]+0.247*[#  10]+0.247*[#  14]+
    |psi|^2 = 0.987
==== e(   7) =    -5.56861 eV ==== 
     psi = 0.249*[#   3]+0.249*[#   7]+0.249*[#  11]+0.249*[#  15]+
    |psi|^2 = 0.997
==== e(   8) =    -5.55317 eV ==== 
     psi = 0.249*[#  11]+0.249*[#  15]+0.249*[#   3]+0.249*[#   7]+
    |psi|^2 = 0.997
==== e(   9) =     4.87191 eV ==== 
     psi = 0.008*[#   4]+0.008*[#   8]+0.008*[#  12]+0.008*[#  16]+
    |psi|^2 = 0.036
==== e(  10) =     5.28993 eV ==== 
     psi = 0.003*[#   2]+0.003*[#   4]+0.003*[#   6]+0.003*[#   8]+0.003*[#  10]+
          +0.003*[#  12]+0.003*[#  14]+0.003*[#  16]+
    |psi|^2 = 0.023
==== e(  11) =     6.03948 eV ==== 
     psi = 0.001*[#   2]+0.001*[#   6]+0.001*[#  10]+0.001*[#  14]+
    |psi|^2 = 0.009
==== e(  12) =     6.50552 eV ==== 
     psi = 0.222*[#   2]+0.222*[#   6]+0.222*[#  10]+0.222*[#  14]+
    |psi|^2 = 0.891

 k =   0.0000000000  0.3127313958  0.0000000000
==== e(   1) =   -18.30091 eV ==== 
     psi = 0.168*[#   1]+0.168*[#   5]+0.168*[#   9]+0.168*[#  13]+0.076*[#   4]+
          +0.076*[#   8]+0.076*[#  12]+0.076*[#  16]+
    |psi|^2 = 0.977
==== e(   2) =   -18.20814 eV ==== 
     psi = 0.171*[#   1]+0.171*[#   5]+0.171*[#   9]+0.171*[#  13]+0.075*[#   4]+
          +0.075*[#   8]+0.075*[#  12]+0.075*[#  16]+
    |psi|^2 = 0.983
==== e(   3) =    -8.48897 eV ==== 
     psi = 0.194*[#   4]+0.194*[#   8]+0.194*[#  12]+0.194*[#  16]+0.053*[#   1]+
          +0.053*[#   5]+0.053*[#   9]+0.053*[#  13]+
    |psi|^2 = 0.991
==== e(   4) =    -8.45138 eV ==== 
     psi = 0.195*[#   4]+0.195*[#   8]+0.195*[#  12]+0.195*[#  16]+0.053*[#   1]+
          +0.053*[#   5]+0.053*[#   9]+0.053*[#  13]+
    |psi|^2 = 0.993
==== e(   5) =    -6.42749 eV ==== 
     psi = 0.245*[#   2]+0.245*[#   6]+0.245*[#  10]+0.245*[#  14]+
    |psi|^2 = 0.982
==== e(   6) =    -5.77081 eV ==== 
     psi = 0.249*[#   3]+0.249*[#   7]+0.249*[#  11]+0.249*[#  15]+
    |psi|^2 = 0.997
==== e(   7) =    -5.75508 eV ==== 
     psi = 0.249*[#  11]+0.249*[#  15]+0.249*[#   3]+0.249*[#   7]+
    |psi|^2 = 0.997
==== e(   8) =    -5.71757 eV ==== 
     psi = 0.247*[#   2]+0.247*[#   6]+0.247*[#  10]+0.247*[#  14]+
    |psi|^2 = 0.989
==== e(   9) =     5.21275 eV ==== 
     psi = 0.007*[#   4]+0.007*[#   8]+0.007*[#  12]+0.007*[#  16]+
    |psi|^2 = 0.032
==== e(  10) =     5.61671 eV ==== 
     psi = 0.010*[#   2]+0.010*[#   6]+0.010*[#  10]+0.010*[#  14]+0.002*[#   4]+
          +0.002*[#   8]+0.002*[#  12]+0.002*[#  16]+
    |psi|^2 = 0.050
==== e(  11) =     5.93136 eV ==== 
     psi = 0.229*[#   2]+0.229*[#   6]+0.229*[#  10]+0.229*[#  14]+
    |psi|^2 = 0.916
==== e(  12) =     6.37788 eV ==== 
     psi = 0.229*[#  10]+0.229*[#  14]+0.229*[#   2]+0.229*[#   6]+
    |psi|^2 = 0.916

 k =   0.0000000000  0.3367876570  0.0000000000
==== e(   1) =   -18.03033 eV ==== 
     psi = 0.162*[#   1]+0.162*[#   5]+0.162*[#   9]+0.162*[#  13]+0.082*[#   4]+
          +0.082*[#   8]+0.082*[#  12]+0.082*[#  16]+
    |psi|^2 = 0.977
==== e(   2) =   -17.93921 eV ==== 
     psi = 0.165*[#   1]+0.165*[#   5]+0.165*[#   9]+0.165*[#  13]+0.081*[#   4]+
          +0.081*[#   8]+0.081*[#  12]+0.081*[#  16]+
    |psi|^2 = 0.983
==== e(   3) =    -9.04061 eV ==== 
     psi = 0.190*[#   4]+0.190*[#   8]+0.190*[#  12]+0.190*[#  16]+0.058*[#   1]+
          +0.058*[#   5]+0.058*[#   9]+0.058*[#  13]+
    |psi|^2 = 0.990
==== e(   4) =    -9.00023 eV ==== 
     psi = 0.191*[#   4]+0.191*[#   8]+0.191*[#  12]+0.191*[#  16]+0.057*[#   1]+
          +0.057*[#   5]+0.057*[#   9]+0.057*[#  13]+
    |psi|^2 = 0.993
==== e(   5) =    -6.11456 eV ==== 
     psi = 0.246*[#   2]+0.246*[#   6]+0.246*[#  10]+0.246*[#  14]+
    |psi|^2 = 0.985
==== e(   6) =    -5.96113 eV ==== 
     psi = 0.249*[#   3]+0.249*[#   7]+0.249*[#  11]+0.249*[#  15]+
    |psi|^2 = 0.997
==== e(   7) =    -5.94512 eV ==== 
     psi = 0.249*[#  11]+0.249*[#  15]+0.249*[#   3]+0.249*[#   7]+
    |psi|^2 = 0.997
==== e(   8) =    -5.41464 eV ==== 
     psi = 0.248*[#   2]+0.248*[#   6]+0.248*[#  10]+0.248*[#  14]+
    |psi|^2 = 0.991
==== e(   9) =     5.34155 eV ==== 
     psi = 0.229*[#   2]+0.229*[#   6]+0.229*[#  10]+0.229*[#  14]+
    |psi|^2 = 0.917
==== e(  10) =     5.58403 eV ==== 
     psi = 0.006*[#   4]+0.006*[#   8]+0.006*[#  12]+0.006*[#  16]+0.003*[#   2]+
          +0.003*[#   6]+0.003*[#  10]+0.003*[#  14]+
    |psi|^2 = 0.038
==== e(  11) =     5.69886 eV ==== 
     psi = 0.185*[#   2]+0.185*[#   6]+0.185*[#  10]+0.185*[#  14]+
    |psi|^2 = 0.743
==== e(  12) =     6.10984 eV ==== 
     psi = 0.054*[#   2]+0.054*[#   6]+0.054*[#  10]+0.054*[#  14]+0.001*[#   4]+
          +0.001*[#   8]+0.001*[#  12]+0.001*[#  16]+
    |psi|^2 = 0.223

 k =   0.0000000000  0.3608439182  0.0000000000
==== e(   1) =   -17.74105 eV ==== 
     psi = 0.157*[#   1]+0.157*[#   5]+0.157*[#   9]+0.157*[#  13]+0.087*[#   4]+
          +0.087*[#   8]+0.087*[#  12]+0.087*[#  16]+
    |psi|^2 = 0.977
==== e(   2) =   -17.65167 eV ==== 
     psi = 0.160*[#   1]+0.160*[#   5]+0.160*[#   9]+0.160*[#  13]+0.086*[#   4]+
          +0.086*[#   8]+0.086*[#  12]+0.086*[#  16]+
    |psi|^2 = 0.984
==== e(   3) =    -9.59127 eV ==== 
     psi = 0.185*[#   4]+0.185*[#   8]+0.185*[#  12]+0.185*[#  16]+0.062*[#   1]+
          +0.062*[#   5]+0.062*[#   9]+0.062*[#  13]+
    |psi|^2 = 0.989
==== e(   4) =    -9.54812 eV ==== 
     psi = 0.186*[#   4]+0.186*[#   8]+0.186*[#  12]+0.186*[#  16]+0.062*[#   1]+
          +0.062*[#   5]+0.062*[#   9]+0.062*[#  13]+
    |psi|^2 = 0.992
==== e(   5) =    -6.13777 eV ==== 
     psi = 0.249*[#   3]+0.249*[#   7]+0.249*[#  11]+0.249*[#  15]+
    |psi|^2 = 0.997
==== e(   6) =    -6.12144 eV ==== 
     psi = 0.249*[#  11]+0.249*[#  15]+0.249*[#   3]+0.249*[#   7]+
    |psi|^2 = 0.997
==== e(   7) =    -5.78392 eV ==== 
     psi = 0.247*[#   2]+0.247*[#   6]+0.247*[#  10]+0.247*[#  14]+
    |psi|^2 = 0.988
==== e(   8) =    -5.09524 eV ==== 
     psi = 0.248*[#   2]+0.248*[#   6]+0.248*[#  10]+0.248*[#  14]+
    |psi|^2 = 0.993
==== e(   9) =     4.75140 eV ==== 
     psi = 0.233*[#   2]+0.233*[#   6]+0.233*[#  10]+0.233*[#  14]+
    |psi|^2 = 0.931
==== e(  10) =     5.19469 eV ==== 
     psi = 0.232*[#   2]+0.232*[#   6]+0.232*[#  10]+0.232*[#  14]+
    |psi|^2 = 0.929
==== e(  11) =     5.97311 eV ==== 
     psi = 0.004*[#   4]+0.004*[#   8]+0.004*[#  12]+0.004*[#  16]+0.001*[#   1]+
          +0.001*[#   5]+0.001*[#   9]+0.001*[#  13]+
    |psi|^2 = 0.021
==== e(  12) =     6.44992 eV ==== 
     psi = 0.007*[#   2]+0.007*[#   6]+0.007*[#  10]+0.007*[#  14]+
    |psi|^2 = 0.034

 k =   0.0000000000  0.3849001795  0.0000000000
==== e(   1) =   -17.43352 eV ==== 
     psi = 0.152*[#   1]+0.152*[#   5]+0.152*[#   9]+0.152*[#  13]+0.092*[#   4]+
          +0.092*[#   8]+0.092*[#  12]+0.092*[#  16]+
    |psi|^2 = 0.978
==== e(   2) =   -17.34598 eV ==== 
     psi = 0.155*[#   1]+0.155*[#   5]+0.155*[#   9]+0.155*[#  13]+0.091*[#   4]+
          +0.091*[#   8]+0.091*[#  12]+0.091*[#  16]+
    |psi|^2 = 0.984
==== e(   3) =   -10.13817 eV ==== 
     psi = 0.181*[#   4]+0.181*[#   8]+0.181*[#  12]+0.181*[#  16]+0.066*[#   1]+
          +0.066*[#   5]+0.066*[#   9]+0.066*[#  13]+
    |psi|^2 = 0.989
==== e(   4) =   -10.09223 eV ==== 
     psi = 0.182*[#   4]+0.182*[#   8]+0.182*[#  12]+0.182*[#  16]+0.066*[#   1]+
          +0.066*[#   5]+0.066*[#   9]+0.066*[#  13]+
    |psi|^2 = 0.991
==== e(   5) =    -6.29909 eV ==== 
     psi = 0.249*[#   3]+0.249*[#   7]+0.249*[#  11]+0.249*[#  15]+
    |psi|^2 = 0.996
==== e(   6) =    -6.28254 eV ==== 
     psi = 0.249*[#  11]+0.249*[#  15]+0.249*[#   3]+0.249*[#   7]+
    |psi|^2 = 0.997
==== e(   7) =    -5.43778 eV ==== 
     psi = 0.248*[#   2]+0.248*[#   6]+0.248*[#  10]+0.248*[#  14]+
    |psi|^2 = 0.991
==== e(   8) =    -4.76168 eV ==== 
     psi = 0.249*[#   2]+0.249*[#   6]+0.249*[#  10]+0.249*[#  14]+
    |psi|^2 = 0.994
==== e(   9) =     4.16101 eV ==== 
     psi = 0.233*[#   2]+0.233*[#   6]+0.233*[#  10]+0.233*[#  14]+
    |psi|^2 = 0.933
==== e(  10) =     4.64282 eV ==== 
     psi = 0.236*[#   2]+0.236*[#   6]+0.236*[#  10]+0.236*[#  14]+
    |psi|^2 = 0.943
==== e(  11) =     6.38390 eV ==== 
     psi = 0.004*[#   1]+0.004*[#   5]+0.004*[#   9]+0.004*[#  13]+0.001*[#   4]+
          +0.001*[#   8]+0.001*[#  12]+0.001*[#  16]+
    |psi|^2 = 0.023
==== e(  12) =     6.86203 eV ==== 
     psi = 0.004*[#   1]+0.004*[#   5]+0.004*[#   9]+0.004*[#  13]+0.003*[#   2]+
          +0.003*[#   6]+0.003*[#  10]+0.003*[#  14]+
    |psi|^2 = 0.028

 k =   0.0000000000  0.4089564407  0.0000000000
==== e(   1) =   -17.10836 eV ==== 
     psi = 0.148*[#   1]+0.148*[#   5]+0.148*[#   9]+0.148*[#  13]+0.096*[#   4]+
          +0.096*[#   8]+0.096*[#  12]+0.096*[#  16]+
    |psi|^2 = 0.978
==== e(   2) =   -17.02270 eV ==== 
     psi = 0.150*[#   1]+0.150*[#   5]+0.150*[#   9]+0.150*[#  13]+0.096*[#   4]+
          +0.096*[#   8]+0.096*[#  12]+0.096*[#  16]+
    |psi|^2 = 0.984
==== e(   3) =   -10.67855 eV ==== 
     psi = 0.177*[#   4]+0.177*[#   8]+0.177*[#  12]+0.177*[#  16]+0.070*[#   1]+
          +0.070*[#   5]+0.070*[#   9]+0.070*[#  13]+
    |psi|^2 = 0.988
==== e(   4) =   -10.62996 eV ==== 
     psi = 0.178*[#   4]+0.178*[#   8]+0.178*[#  12]+0.178*[#  16]+0.069*[#   1]+
          +0.069*[#   5]+0.069*[#   9]+0.069*[#  13]+
    |psi|^2 = 0.991
==== e(   5) =    -6.44386 eV ==== 
     psi = 0.249*[#   3]+0.249*[#   7]+0.249*[#  11]+0.249*[#  15]+
    |psi|^2 = 0.996
==== e(   6) =    -6.42715 eV ==== 
     psi = 0.249*[#  11]+0.249*[#  15]+0.249*[#   3]+0.249*[#   7]+
    |psi|^2 = 0.997
==== e(   7) =    -5.07935 eV ==== 
     psi = 0.248*[#   2]+0.248*[#   6]+0.248*[#  10]+0.248*[#  14]+
    |psi|^2 = 0.993
==== e(   8) =    -4.41741 eV ==== 
     psi = 0.249*[#   2]+0.249*[#   6]+0.249*[#  10]+0.249*[#  14]+
    |psi|^2 = 0.995
==== e(   9) =     3.57937 eV ==== 
     psi = 0.234*[#   2]+0.234*[#   6]+0.234*[#  10]+0.234*[#  14]+
    |psi|^2 = 0.935
==== e(  10) =     4.09429 eV ==== 
     psi = 0.237*[#   2]+0.237*[#   6]+0.237*[#  10]+0.237*[#  14]+
    |psi|^2 = 0.947
==== e(  11) =     6.78267 eV ==== 
     psi = 0.030*[#   1]+0.030*[#   5]+0.030*[#   9]+0.030*[#  13]+0.003*[#   4]+
          +0.003*[#   8]+0.003*[#  12]+0.003*[#  16]+
    |psi|^2 = 0.133
==== e(  12) =     7.14428 eV ==== 
     psi = 0.115*[#   1]+0.115*[#   5]+0.114*[#   9]+0.114*[#  13]+0.073*[#   4]+
          +0.073*[#   8]+0.072*[#  12]+0.072*[#  16]+
    |psi|^2 = 0.750

 k =   0.0000000000  0.4330127019  0.0000000000
==== e(   1) =   -16.76639 eV ==== 
     psi = 0.144*[#   1]+0.144*[#   5]+0.144*[#   9]+0.144*[#  13]+0.100*[#   4]+
          +0.100*[#   8]+0.100*[#  12]+0.100*[#  16]+
    |psi|^2 = 0.979
==== e(   2) =   -16.68266 eV ==== 
     psi = 0.146*[#   1]+0.146*[#   5]+0.146*[#   9]+0.146*[#  13]+0.100*[#   4]+
          +0.100*[#   8]+0.100*[#  12]+0.100*[#  16]+
    |psi|^2 = 0.985
==== e(   3) =   -11.21011 eV ==== 
     psi = 0.174*[#   4]+0.174*[#   8]+0.174*[#  12]+0.174*[#  16]+0.073*[#   1]+
          +0.073*[#   5]+0.073*[#   9]+0.073*[#  13]+
    |psi|^2 = 0.987
==== e(   4) =   -11.15874 eV ==== 
     psi = 0.175*[#   4]+0.175*[#   8]+0.175*[#  12]+0.175*[#  16]+0.073*[#   1]+
          +0.073*[#   5]+0.073*[#   9]+0.073*[#  13]+
    |psi|^2 = 0.990
==== e(   5) =    -6.57119 eV ==== 
     psi = 0.249*[#   3]+0.249*[#   7]+0.249*[#  11]+0.249*[#  15]+
    |psi|^2 = 0.996
==== e(   6) =    -6.55429 eV ==== 
     psi = 0.249*[#  11]+0.249*[#  15]+0.249*[#   3]+0.249*[#   7]+
    |psi|^2 = 0.996
==== e(   7) =    -4.71321 eV ==== 
     psi = 0.249*[#   2]+0.249*[#   6]+0.249*[#  10]+0.249*[#  14]+
    |psi|^2 = 0.994
==== e(   8) =    -4.06722 eV ==== 
     psi = 0.249*[#   2]+0.249*[#   6]+0.249*[#  10]+0.249*[#  14]+
    |psi|^2 = 0.996
==== e(   9) =     3.01415 eV ==== 
     psi = 0.234*[#   2]+0.234*[#   6]+0.234*[#  10]+0.234*[#  14]+
    |psi|^2 = 0.937
==== e(  10) =     3.56061 eV ==== 
     psi = 0.237*[#   2]+0.237*[#   6]+0.237*[#  10]+0.237*[#  14]+
    |psi|^2 = 0.949
==== e(  11) =     6.94607 eV ==== 
     psi = 0.131*[#   1]+0.131*[#   5]+0.131*[#   9]+0.131*[#  13]+0.045*[#   4]+
          +0.045*[#   8]+0.045*[#  12]+0.045*[#  16]+
    |psi|^2 = 0.706
==== e(  12) =     7.12339 eV ==== 
     psi = 0.150*[#   1]+0.150*[#   5]+0.150*[#   9]+0.150*[#  13]+0.067*[#   4]+
          +0.067*[#   8]+0.067*[#  12]+0.067*[#  16]+
    |psi|^2 = 0.867

 k =   0.0000000000  0.4570689631  0.0000000000
==== e(   1) =   -16.40890 eV ==== 
     psi = 0.141*[#   1]+0.141*[#   5]+0.141*[#   9]+0.141*[#  13]+0.104*[#   4]+
          +0.104*[#   8]+0.104*[#  12]+0.104*[#  16]+
    |psi|^2 = 0.980
==== e(   2) =   -16.32714 eV ==== 
     psi = 0.143*[#   1]+0.143*[#   5]+0.143*[#   9]+0.143*[#  13]+0.103*[#   4]+
          +0.103*[#   8]+0.103*[#  12]+0.103*[#  16]+
    |psi|^2 = 0.985
==== e(   3) =   -11.73010 eV ==== 
     psi = 0.171*[#   4]+0.171*[#   8]+0.171*[#  12]+0.171*[#  16]+0.076*[#   1]+
          +0.076*[#   5]+0.076*[#   9]+0.076*[#  13]+
    |psi|^2 = 0.986
==== e(   4) =   -11.67606 eV ==== 
     psi = 0.172*[#   4]+0.172*[#   8]+0.172*[#  12]+0.172*[#  16]+0.076*[#   1]+
          +0.076*[#   5]+0.076*[#   9]+0.076*[#  13]+
    |psi|^2 = 0.989
==== e(   5) =    -6.68023 eV ==== 
     psi = 0.249*[#   3]+0.249*[#   7]+0.249*[#  11]+0.249*[#  15]+
    |psi|^2 = 0.996
==== e(   6) =    -6.66326 eV ==== 
     psi = 0.249*[#  11]+0.249*[#  15]+0.249*[#   3]+0.249*[#   7]+
    |psi|^2 = 0.996
==== e(   7) =    -4.34622 eV ==== 
     psi = 0.249*[#   2]+0.249*[#   6]+0.249*[#  10]+0.249*[#  14]+
    |psi|^2 = 0.995
==== e(   8) =    -3.71810 eV ==== 
     psi = 0.249*[#   2]+0.249*[#   6]+0.249*[#  10]+0.249*[#  14]+
    |psi|^2 = 0.997
==== e(   9) =     2.47475 eV ==== 
     psi = 0.235*[#   2]+0.235*[#   6]+0.235*[#  10]+0.235*[#  14]+
    |psi|^2 = 0.939
==== e(  10) =     3.05208 eV ==== 
     psi = 0.238*[#   2]+0.238*[#   6]+0.238*[#  10]+0.238*[#  14]+
    |psi|^2 = 0.951
==== e(  11) =     6.92519 eV ==== 
     psi = 0.152*[#   1]+0.152*[#   5]+0.152*[#   9]+0.152*[#  13]+0.056*[#   4]+
          +0.056*[#   8]+0.056*[#  12]+0.056*[#  16]+
    |psi|^2 = 0.832
==== e(  12) =     7.07398 eV ==== 
     psi = 0.156*[#   1]+0.156*[#   5]+0.156*[#   9]+0.156*[#  13]+0.064*[#   4]+
          +0.064*[#   8]+0.064*[#  12]+0.064*[#  16]+
    |psi|^2 = 0.881

 k =   0.0000000000  0.4811252243  0.0000000000
==== e(   1) =   -16.03810 eV ==== 
     psi = 0.139*[#   1]+0.139*[#   5]+0.139*[#   9]+0.139*[#  13]+0.106*[#   4]+
          +0.106*[#   8]+0.106*[#  12]+0.106*[#  16]+
    |psi|^2 = 0.982
==== e(   2) =   -15.95831 eV ==== 
     psi = 0.141*[#   1]+0.141*[#   5]+0.141*[#   9]+0.141*[#  13]+0.106*[#   4]+
          +0.106*[#   8]+0.106*[#  12]+0.106*[#  16]+
    |psi|^2 = 0.986
==== e(   3) =   -12.23516 eV ==== 
     psi = 0.169*[#   4]+0.169*[#   8]+0.169*[#  12]+0.169*[#  16]+0.077*[#   1]+
          +0.077*[#   5]+0.077*[#   9]+0.077*[#  13]+
    |psi|^2 = 0.985
==== e(   4) =   -12.17864 eV ==== 
     psi = 0.169*[#   4]+0.169*[#   8]+0.170*[#  12]+0.170*[#  16]+0.078*[#   1]+
          +0.078*[#   5]+0.078*[#   9]+0.078*[#  13]+
    |psi|^2 = 0.988
==== e(   5) =    -6.77016 eV ==== 
     psi = 0.249*[#   3]+0.249*[#   7]+0.249*[#  11]+0.249*[#  15]+
    |psi|^2 = 0.996
==== e(   6) =    -6.75310 eV ==== 
     psi = 0.249*[#  11]+0.249*[#  15]+0.249*[#   3]+0.249*[#   7]+
    |psi|^2 = 0.996
==== e(   7) =    -3.98897 eV ==== 
     psi = 0.249*[#   2]+0.249*[#   6]+0.249*[#  10]+0.249*[#  14]+
    |psi|^2 = 0.996
==== e(   8) =    -3.38068 eV ==== 
     psi = 0.249*[#   2]+0.249*[#   6]+0.249*[#  10]+0.249*[#  14]+
    |psi|^2 = 0.997
==== e(   9) =     1.97376 eV ==== 
     psi = 0.235*[#   2]+0.235*[#   6]+0.235*[#  10]+0.235*[#  14]+
    |psi|^2 = 0.940
==== e(  10) =     2.58158 eV ==== 
     psi = 0.238*[#   2]+0.238*[#   6]+0.238*[#  10]+0.238*[#  14]+
    |psi|^2 = 0.952
==== e(  11) =     6.88883 eV ==== 
     psi = 0.159*[#   1]+0.159*[#   5]+0.159*[#   9]+0.159*[#  13]+0.056*[#   4]+
          +0.056*[#   8]+0.056*[#  12]+0.056*[#  16]+
    |psi|^2 = 0.860
==== e(  12) =     7.03096 eV ==== 
     psi = 0.160*[#   1]+0.160*[#   5]+0.160*[#   9]+0.160*[#  13]+0.061*[#   4]+
          +0.061*[#   8]+0.061*[#  12]+0.061*[#  16]+
    |psi|^2 = 0.885

 k =   0.0000000000  0.5051814855  0.0000000000
==== e(   1) =   -15.65853 eV ==== 
     psi = 0.139*[#   1]+0.139*[#   5]+0.139*[#   9]+0.139*[#  13]+0.107*[#   4]+
          +0.107*[#   8]+0.107*[#  12]+0.107*[#  16]+
    |psi|^2 = 0.983
==== e(   2) =   -15.58067 eV ==== 
     psi = 0.140*[#   1]+0.140*[#   5]+0.140*[#   9]+0.140*[#  13]+0.107*[#   4]+
          +0.107*[#   8]+0.107*[#  12]+0.107*[#  16]+
    |psi|^2 = 0.987
==== e(   3) =   -12.71996 eV ==== 
     psi = 0.168*[#   4]+0.168*[#   8]+0.168*[#  12]+0.168*[#  16]+0.078*[#   1]+
          +0.078*[#   5]+0.078*[#   9]+0.078*[#  13]+
    |psi|^2 = 0.984
==== e(   4) =   -12.66122 eV ==== 
     psi = 0.169*[#   4]+0.169*[#   8]+0.169*[#  12]+0.169*[#  16]+0.078*[#   1]+
          +0.078*[#   5]+0.078*[#   9]+0.078*[#  13]+
    |psi|^2 = 0.987
==== e(   5) =    -6.84066 eV ==== 
     psi = 0.249*[#   3]+0.249*[#   7]+0.249*[#  11]+0.249*[#  15]+
    |psi|^2 = 0.996
==== e(   6) =    -6.82350 eV ==== 
     psi = 0.249*[#  11]+0.249*[#  15]+0.249*[#   3]+0.249*[#   7]+
    |psi|^2 = 0.996
==== e(   7) =    -3.65804 eV ==== 
     psi = 0.249*[#   2]+0.249*[#   6]+0.249*[#  10]+0.249*[#  14]+
    |psi|^2 = 0.997
==== e(   8) =    -3.07107 eV ==== 
     psi = 0.249*[#   2]+0.249*[#   6]+0.249*[#  10]+0.249*[#  14]+
    |psi|^2 = 0.997
==== e(   9) =     1.52941 eV ==== 
     psi = 0.235*[#   2]+0.235*[#   6]+0.235*[#  10]+0.235*[#  14]+
    |psi|^2 = 0.942
==== e(  10) =     2.16680 eV ==== 
     psi = 0.238*[#   2]+0.238*[#   6]+0.238*[#  10]+0.238*[#  14]+
    |psi|^2 = 0.953
==== e(  11) =     6.85651 eV ==== 
     psi = 0.163*[#   1]+0.163*[#   5]+0.163*[#   9]+0.163*[#  13]+0.055*[#   4]+
          +0.055*[#   8]+0.055*[#  12]+0.055*[#  16]+
    |psi|^2 = 0.871
==== e(  12) =     6.99646 eV ==== 
     psi = 0.163*[#   1]+0.163*[#   5]+0.164*[#   9]+0.164*[#  13]+0.058*[#   4]+
          +0.058*[#   8]+0.058*[#  12]+0.058*[#  16]+
    |psi|^2 = 0.886

 k =   0.0000000000  0.5292377468  0.0000000000
==== e(   1) =   -15.28142 eV ==== 
     psi = 0.141*[#   1]+0.141*[#   5]+0.141*[#   9]+0.141*[#  13]+0.105*[#   4]+
          +0.105*[#   8]+0.105*[#  12]+0.105*[#  16]+
    |psi|^2 = 0.986
==== e(   2) =   -15.20516 eV ==== 
     psi = 0.142*[#   1]+0.142*[#   5]+0.143*[#   9]+0.143*[#  13]+0.105*[#   4]+
          +0.105*[#   8]+0.105*[#  12]+0.105*[#  16]+
    |psi|^2 = 0.989
==== e(   3) =   -13.17268 eV ==== 
     psi = 0.170*[#   4]+0.170*[#   8]+0.170*[#  12]+0.170*[#  16]+0.075*[#   1]+
          +0.075*[#   5]+0.075*[#   9]+0.075*[#  13]+
    |psi|^2 = 0.981
==== e(   4) =   -13.11204 eV ==== 
     psi = 0.171*[#   4]+0.171*[#   8]+0.171*[#  12]+0.171*[#  16]+0.076*[#   1]+
          +0.076*[#   5]+0.076*[#   9]+0.076*[#  13]+
    |psi|^2 = 0.985
==== e(   5) =    -6.89129 eV ==== 
     psi = 0.249*[#   3]+0.249*[#   7]+0.249*[#  11]+0.249*[#  15]+
    |psi|^2 = 0.996
==== e(   6) =    -6.87402 eV ==== 
     psi = 0.249*[#  11]+0.249*[#  15]+0.249*[#   3]+0.249*[#   7]+
    |psi|^2 = 0.996
==== e(   7) =    -3.37880 eV ==== 
     psi = 0.249*[#   2]+0.249*[#   6]+0.249*[#  10]+0.249*[#  14]+
    |psi|^2 = 0.997
==== e(   8) =    -2.81291 eV ==== 
     psi = 0.249*[#   2]+0.249*[#   6]+0.249*[#  10]+0.249*[#  14]+
    |psi|^2 = 0.998
==== e(   9) =     1.16832 eV ==== 
     psi = 0.236*[#   2]+0.236*[#   6]+0.236*[#  10]+0.236*[#  14]+
    |psi|^2 = 0.943
==== e(  10) =     1.83267 eV ==== 
     psi = 0.238*[#   2]+0.238*[#   6]+0.238*[#  10]+0.238*[#  14]+
    |psi|^2 = 0.953
==== e(  11) =     6.83217 eV ==== 
     psi = 0.165*[#   1]+0.165*[#   5]+0.165*[#   9]+0.165*[#  13]+0.054*[#   4]+
          +0.054*[#   8]+0.054*[#  12]+0.054*[#  16]+
    |psi|^2 = 0.877
==== e(  12) =     6.97137 eV ==== 
     psi = 0.166*[#   1]+0.166*[#   5]+0.166*[#   9]+0.166*[#  13]+0.056*[#   4]+
          +0.056*[#   8]+0.056*[#  12]+0.056*[#  16]+
    |psi|^2 = 0.887

 k =   0.0000000000  0.5532940080  0.0000000000
==== e(   1) =   -14.94329 eV ==== 
     psi = 0.150*[#   1]+0.150*[#   5]+0.150*[#   9]+0.150*[#  13]+0.097*[#   4]+
          +0.097*[#   8]+0.097*[#  12]+0.097*[#  16]+
    |psi|^2 = 0.989
==== e(   2) =   -14.86794 eV ==== 
     psi = 0.151*[#   1]+0.151*[#   5]+0.151*[#   9]+0.151*[#  13]+0.097*[#   4]+
          +0.097*[#   8]+0.097*[#  12]+0.097*[#  16]+
    |psi|^2 = 0.991
==== e(   3) =   -13.55634 eV ==== 
     psi = 0.178*[#   4]+0.178*[#   8]+0.178*[#  12]+0.178*[#  16]+0.066*[#   1]+
          +0.066*[#   5]+0.066*[#   9]+0.066*[#  13]+
    |psi|^2 = 0.978
==== e(   4) =   -13.49463 eV ==== 
     psi = 0.179*[#   4]+0.179*[#   8]+0.179*[#  12]+0.179*[#  16]+0.067*[#   1]+
          +0.067*[#   5]+0.067*[#   9]+0.067*[#  13]+
    |psi|^2 = 0.983
==== e(   5) =    -6.92177 eV ==== 
     psi = 0.249*[#   3]+0.249*[#   7]+0.249*[#  11]+0.249*[#  15]+
    |psi|^2 = 0.996
==== e(   6) =    -6.90443 eV ==== 
     psi = 0.249*[#  11]+0.249*[#  15]+0.249*[#   3]+0.249*[#   7]+
    |psi|^2 = 0.996
==== e(   7) =    -3.18626 eV ==== 
     psi = 0.249*[#   2]+0.249*[#   6]+0.249*[#  10]+0.249*[#  14]+
    |psi|^2 = 0.998
==== e(   8) =    -2.63709 eV ==== 
     psi = 0.249*[#   2]+0.249*[#   6]+0.249*[#  10]+0.249*[#  14]+
    |psi|^2 = 0.998
==== e(   9) =     0.92628 eV ==== 
     psi = 0.236*[#   2]+0.236*[#   6]+0.236*[#  10]+0.236*[#  14]+
    |psi|^2 = 0.943
==== e(  10) =     1.61091 eV ==== 
     psi = 0.238*[#   2]+0.238*[#   6]+0.238*[#  10]+0.238*[#  14]+
    |psi|^2 = 0.953
==== e(  11) =     6.81717 eV ==== 
     psi = 0.167*[#   1]+0.167*[#   5]+0.167*[#   9]+0.167*[#  13]+0.053*[#   4]+
          +0.053*[#   8]+0.053*[#  12]+0.053*[#  16]+
    |psi|^2 = 0.879
==== e(  12) =     6.95615 eV ==== 
     psi = 0.167*[#   1]+0.167*[#   5]+0.167*[#   9]+0.167*[#  13]+0.055*[#   4]+
          +0.055*[#   8]+0.055*[#  12]+0.055*[#  16]+
    |psi|^2 = 0.888

 k =   0.0000000000 -0.5773502692  0.0000000000
==== e(   1) =   -14.77722 eV ==== 
     psi = 0.160*[#   1]+0.160*[#   5]+0.160*[#   9]+0.160*[#  13]+0.088*[#   4]+
          +0.088*[#   8]+0.088*[#  12]+0.088*[#  16]+
    |psi|^2 = 0.992
==== e(   2) =   -14.70186 eV ==== 
     psi = 0.161*[#   1]+0.161*[#   5]+0.161*[#   9]+0.161*[#  13]+0.087*[#   4]+
          +0.087*[#   8]+0.087*[#  12]+0.087*[#  16]+
    |psi|^2 = 0.994
==== e(   3) =   -13.73760 eV ==== 
     psi = 0.188*[#   4]+0.188*[#   8]+0.188*[#  12]+0.188*[#  16]+0.056*[#   1]+
          +0.056*[#   5]+0.056*[#   9]+0.056*[#  13]+
    |psi|^2 = 0.976
==== e(   4) =   -13.67593 eV ==== 
     psi = 0.189*[#   4]+0.189*[#   8]+0.189*[#  12]+0.189*[#  16]+0.057*[#   1]+
          +0.057*[#   5]+0.057*[#   9]+0.057*[#  13]+
    |psi|^2 = 0.981
==== e(   5) =    -6.93194 eV ==== 
     psi = 0.249*[#   3]+0.249*[#   7]+0.249*[#  11]+0.249*[#  15]+
    |psi|^2 = 0.996
==== e(   6) =    -6.91470 eV ==== 
     psi = 0.249*[#  11]+0.249*[#  15]+0.249*[#   3]+0.249*[#   7]+
    |psi|^2 = 0.996
==== e(   7) =    -3.11656 eV ==== 
     psi = 0.249*[#   2]+0.249*[#   6]+0.249*[#  10]+0.249*[#  14]+
    |psi|^2 = 0.998
==== e(   8) =    -2.57398 eV ==== 
     psi = 0.249*[#   2]+0.249*[#   6]+0.249*[#  10]+0.249*[#  14]+
    |psi|^2 = 0.998
==== e(   9) =     0.84001 eV ==== 
     psi = 0.236*[#   2]+0.236*[#   6]+0.236*[#  10]+0.236*[#  14]+
    |psi|^2 = 0.944
==== e(  10) =     1.53246 eV ==== 
     psi = 0.238*[#   2]+0.238*[#   6]+0.238*[#  10]+0.238*[#  14]+
    |psi|^2 = 0.953
==== e(  11) =     6.81212 eV ==== 
     psi = 0.167*[#   1]+0.167*[#   5]+0.167*[#   9]+0.167*[#  13]+0.053*[#   4]+
          +0.053*[#   8]+0.053*[#  12]+0.053*[#  16]+
    |psi|^2 = 0.880
==== e(  12) =     6.95103 eV ==== 
     psi = 0.167*[#   1]+0.167*[#   5]+0.167*[#   9]+0.167*[#  13]+0.054*[#   4]+
          +0.054*[#   8]+0.054*[#  12]+0.054*[#  16]+
    |psi|^2 = 0.888

 k =   0.0208333333  0.0360843918  0.0000000000
==== e(   1) =   -19.98696 eV ==== 
     psi = 0.242*[#   1]+0.242*[#   5]+0.242*[#   9]+0.242*[#  13]+0.002*[#   4]+
          +0.002*[#   8]+0.002*[#  12]+0.002*[#  16]+
    |psi|^2 = 0.979
==== e(   2) =   -19.88349 eV ==== 
     psi = 0.243*[#   1]+0.243*[#   5]+0.243*[#   9]+0.243*[#  13]+0.002*[#   4]+
          +0.002*[#   8]+0.002*[#  12]+0.002*[#  16]+
    |psi|^2 = 0.986
==== e(   3) =    -8.42867 eV ==== 
     psi = 0.237*[#   2]+0.237*[#   6]+0.237*[#  10]+0.237*[#  14]+
    |psi|^2 = 0.949
==== e(   4) =    -7.66474 eV ==== 
     psi = 0.241*[#   2]+0.241*[#   6]+0.241*[#  10]+0.241*[#  14]+
    |psi|^2 = 0.965
==== e(   5) =    -3.69347 eV ==== 
     psi = 0.187*[#   4]+0.187*[#   8]+0.187*[#  12]+0.187*[#  16]+0.060*[#   3]+
          +0.060*[#   7]+0.060*[#  11]+0.060*[#  15]+0.002*[#   1]+0.002*[#   5]+
          +0.002*[#   9]+0.002*[#  13]+
    |psi|^2 = 0.997
==== e(   6) =    -3.68169 eV ==== 
     psi = 0.187*[#  12]+0.187*[#  16]+0.187*[#   4]+0.187*[#   8]+0.060*[#   3]+
          +0.060*[#   7]+0.060*[#  11]+0.060*[#  15]+0.002*[#   1]+0.002*[#   5]+
          +0.002*[#   9]+0.002*[#  13]+
    |psi|^2 = 0.997
==== e(   7) =    -3.63417 eV ==== 
     psi = 0.189*[#   3]+0.189*[#   7]+0.188*[#  11]+0.188*[#  15]+0.061*[#   4]+
          +0.061*[#   8]+0.061*[#  12]+0.061*[#  16]+
    |psi|^2 = 0.997
==== e(   8) =    -3.62283 eV ==== 
     psi = 0.189*[#  11]+0.189*[#  15]+0.188*[#   3]+0.188*[#   7]+0.061*[#   4]+
          +0.061*[#   8]+0.061*[#  12]+0.061*[#  16]+
    |psi|^2 = 0.997
==== e(   9) =     2.93395 eV ==== 
     psi = 0.002*[#   1]+0.002*[#   5]+0.002*[#   9]+0.002*[#  13]+
    |psi|^2 = 0.016
==== e(  10) =     3.33676 eV ==== 
     psi = 0.005*[#   2]+0.005*[#   6]+0.005*[#  10]+0.005*[#  14]+
    |psi|^2 = 0.022
==== e(  11) =     4.05811 eV ==== 
     psi = 
    |psi|^2 = 0.003
==== e(  12) =     5.27071 eV ==== 
     psi = 0.002*[#   2]+0.002*[#   6]+0.002*[#  10]+0.002*[#  14]+
    |psi|^2 = 0.008

 k =   0.0208333333  0.0601406530  0.0000000000
==== e(   1) =   -19.94593 eV ==== 
     psi = 0.238*[#   1]+0.238*[#   5]+0.238*[#   9]+0.238*[#  13]+0.006*[#   4]+
          +0.006*[#   8]+0.006*[#  12]+0.006*[#  16]+
    |psi|^2 = 0.979
==== e(   2) =   -19.84273 eV ==== 
     psi = 0.240*[#   1]+0.240*[#   5]+0.240*[#   9]+0.240*[#  13]+0.005*[#   4]+
          +0.005*[#   8]+0.005*[#  12]+0.005*[#  16]+
    |psi|^2 = 0.986
==== e(   3) =    -8.37927 eV ==== 
     psi = 0.237*[#   2]+0.237*[#   6]+0.237*[#  10]+0.237*[#  14]+
    |psi|^2 = 0.950
==== e(   4) =    -7.61649 eV ==== 
     psi = 0.241*[#   2]+0.241*[#   6]+0.241*[#  10]+0.241*[#  14]+
    |psi|^2 = 0.966
==== e(   5) =    -3.85702 eV ==== 
     psi = 0.220*[#   4]+0.220*[#   8]+0.220*[#  12]+0.220*[#  16]+0.025*[#   3]+
          +0.025*[#   7]+0.025*[#  11]+0.025*[#  15]+0.004*[#   1]+0.004*[#   5]+
          +0.004*[#   9]+0.004*[#  13]+
    |psi|^2 = 0.997
==== e(   6) =    -3.84426 eV ==== 
     psi = 0.220*[#  12]+0.220*[#  16]+0.220*[#   4]+0.220*[#   8]+0.025*[#   3]+
          +0.025*[#   7]+0.025*[#  11]+0.025*[#  15]+0.004*[#   1]+0.004*[#   5]+
          +0.004*[#   9]+0.004*[#  13]+
    |psi|^2 = 0.997
==== e(   7) =    -3.72209 eV ==== 
     psi = 0.224*[#   3]+0.224*[#   7]+0.224*[#  11]+0.224*[#  15]+0.026*[#   4]+
          +0.026*[#   8]+0.026*[#  12]+0.026*[#  16]+
    |psi|^2 = 0.997
==== e(   8) =    -3.71049 eV ==== 
     psi = 0.224*[#  11]+0.224*[#  15]+0.224*[#   3]+0.224*[#   7]+0.026*[#   4]+
          +0.026*[#   8]+0.026*[#  12]+0.026*[#  16]+
    |psi|^2 = 0.997
==== e(   9) =     2.98907 eV ==== 
     psi = 0.002*[#   4]+0.002*[#   8]+0.002*[#  12]+0.002*[#  16]+0.002*[#   1]+
          +0.002*[#   5]+0.002*[#   9]+0.002*[#  13]+
    |psi|^2 = 0.019
==== e(  10) =     3.39258 eV ==== 
     psi = 0.005*[#   2]+0.005*[#   6]+0.005*[#  10]+0.005*[#  14]+
    |psi|^2 = 0.023
==== e(  11) =     4.11445 eV ==== 
     psi = 
    |psi|^2 = 0.004
==== e(  12) =     5.32669 eV ==== 
     psi = 0.002*[#   2]+0.002*[#   6]+0.002*[#  10]+0.002*[#  14]+
    |psi|^2 = 0.008

 k =   0.0208333333  0.0841969143  0.0000000000
==== e(   1) =   -19.88442 eV ==== 
     psi = 0.233*[#   1]+0.233*[#   5]+0.233*[#   9]+0.233*[#  13]+0.011*[#   4]+
          +0.011*[#   8]+0.011*[#  12]+0.011*[#  16]+
    |psi|^2 = 0.979
==== e(   2) =   -19.78162 eV ==== 
     psi = 0.235*[#   1]+0.235*[#   5]+0.235*[#   9]+0.235*[#  13]+0.010*[#   4]+
          +0.010*[#   8]+0.010*[#  12]+0.010*[#  16]+
    |psi|^2 = 0.985
==== e(   3) =    -8.30522 eV ==== 
     psi = 0.237*[#   2]+0.237*[#   6]+0.237*[#  10]+0.237*[#  14]+
    |psi|^2 = 0.951
==== e(   4) =    -7.54422 eV ==== 
     psi = 0.241*[#   2]+0.241*[#   6]+0.241*[#  10]+0.241*[#  14]+
    |psi|^2 = 0.967
==== e(   5) =    -4.09446 eV ==== 
     psi = 0.230*[#   4]+0.230*[#   8]+0.230*[#  12]+0.230*[#  16]+0.013*[#   3]+
          +0.013*[#   7]+0.012*[#  11]+0.012*[#  15]+0.007*[#   1]+0.007*[#   5]+
          +0.007*[#   9]+0.007*[#  13]+
    |psi|^2 = 0.997
==== e(   6) =    -4.08032 eV ==== 
     psi = 0.230*[#  12]+0.230*[#  16]+0.230*[#   4]+0.230*[#   8]+0.012*[#   3]+
          +0.012*[#   7]+0.013*[#  11]+0.013*[#  15]+0.007*[#   1]+0.007*[#   5]+
          +0.007*[#   9]+0.007*[#  13]+
    |psi|^2 = 0.997
==== e(   7) =    -3.84838 eV ==== 
     psi = 0.236*[#   3]+0.236*[#   7]+0.236*[#  11]+0.236*[#  15]+0.013*[#   4]+
          +0.013*[#   8]+0.013*[#  12]+0.013*[#  16]+
    |psi|^2 = 0.997
==== e(   8) =    -3.83645 eV ==== 
     psi = 0.236*[#  11]+0.236*[#  15]+0.236*[#   3]+0.236*[#   7]+0.013*[#   4]+
          +0.013*[#   8]+0.013*[#  12]+0.013*[#  16]+
    |psi|^2 = 0.997
==== e(   9) =     3.07176 eV ==== 
     psi = 0.004*[#   4]+0.004*[#   8]+0.004*[#  12]+0.004*[#  16]+0.001*[#   1]+
          +0.001*[#   5]+0.001*[#   9]+0.001*[#  13]+
    |psi|^2 = 0.024
==== e(  10) =     3.47629 eV ==== 
     psi = 0.004*[#   2]+0.004*[#   6]+0.004*[#  10]+0.004*[#  14]+0.001*[#   4]+
          +0.001*[#   8]+0.001*[#  12]+0.001*[#  16]+
    |psi|^2 = 0.023
==== e(  11) =     4.19897 eV ==== 
     psi = 
    |psi|^2 = 0.005
==== e(  12) =     5.41065 eV ==== 
     psi = 0.001*[#   2]+0.001*[#   6]+0.001*[#  10]+0.001*[#  14]+
    |psi|^2 = 0.008

 k =   0.0208333333  0.1082531755  0.0000000000
==== e(   1) =   -19.80247 eV ==== 
     psi = 0.227*[#   1]+0.227*[#   5]+0.227*[#   9]+0.227*[#  13]+0.017*[#   4]+
          +0.017*[#   8]+0.017*[#  12]+0.017*[#  16]+
    |psi|^2 = 0.979
==== e(   2) =   -19.70020 eV ==== 
     psi = 0.229*[#   1]+0.229*[#   5]+0.229*[#   9]+0.229*[#  13]+0.016*[#   4]+
          +0.016*[#   8]+0.016*[#  12]+0.016*[#  16]+
    |psi|^2 = 0.985
==== e(   3) =    -8.20667 eV ==== 
     psi = 0.238*[#   2]+0.238*[#   6]+0.238*[#  10]+0.238*[#  14]+
    |psi|^2 = 0.953
==== e(   4) =    -7.44804 eV ==== 
     psi = 0.242*[#   2]+0.242*[#   6]+0.242*[#  10]+0.242*[#  14]+
    |psi|^2 = 0.969
==== e(   5) =    -4.39826 eV ==== 
     psi = 0.232*[#   4]+0.232*[#   8]+0.231*[#  12]+0.231*[#  16]+0.011*[#   1]+
          +0.011*[#   5]+0.011*[#   9]+0.011*[#  13]+0.007*[#   3]+0.007*[#   7]+
          +0.007*[#  11]+0.007*[#  15]+
    |psi|^2 = 0.997
==== e(   6) =    -4.38239 eV ==== 
     psi = 0.232*[#  12]+0.232*[#  16]+0.231*[#   4]+0.231*[#   8]+0.011*[#   1]+
          +0.011*[#   5]+0.011*[#   9]+0.011*[#  13]+0.007*[#   3]+0.007*[#   7]+
          +0.007*[#  11]+0.007*[#  15]+
    |psi|^2 = 0.997
==== e(   7) =    -4.00695 eV ==== 
     psi = 0.242*[#   3]+0.242*[#   7]+0.242*[#  11]+0.242*[#  15]+0.007*[#   4]+
          +0.007*[#   8]+0.007*[#  12]+0.007*[#  16]+
    |psi|^2 = 0.997
==== e(   8) =    -3.99463 eV ==== 
     psi = 0.242*[#  11]+0.242*[#  15]+0.242*[#   3]+0.242*[#   7]+0.007*[#   4]+
          +0.007*[#   8]+0.007*[#  12]+0.007*[#  16]+
    |psi|^2 = 0.997
==== e(   9) =     3.18201 eV ==== 
     psi = 0.005*[#   4]+0.005*[#   8]+0.005*[#  12]+0.005*[#  16]+
    |psi|^2 = 0.029
==== e(  10) =     3.58787 eV ==== 
     psi = 0.004*[#   2]+0.004*[#   6]+0.004*[#  10]+0.004*[#  14]+0.002*[#   4]+
          +0.002*[#   8]+0.002*[#  12]+0.002*[#  16]+
    |psi|^2 = 0.024
==== e(  11) =     4.31168 eV ==== 
     psi = 0.001*[#   4]+0.001*[#   8]+0.001*[#  12]+0.001*[#  16]+
    |psi|^2 = 0.006
==== e(  12) =     5.52258 eV ==== 
     psi = 0.001*[#   2]+0.001*[#   6]+0.001*[#  10]+0.001*[#  14]+
    |psi|^2 = 0.008

 k =   0.0208333333  0.1323094367  0.0000000000
==== e(   1) =   -19.70013 eV ==== 
     psi = 0.220*[#   1]+0.220*[#   5]+0.220*[#   9]+0.220*[#  13]+0.024*[#   4]+
          +0.024*[#   8]+0.024*[#  12]+0.024*[#  16]+
    |psi|^2 = 0.979
==== e(   2) =   -19.59853 eV ==== 
     psi = 0.223*[#   1]+0.223*[#   5]+0.223*[#   9]+0.223*[#  13]+0.023*[#   4]+
          +0.023*[#   8]+0.023*[#  12]+0.023*[#  16]+
    |psi|^2 = 0.985
==== e(   3) =    -8.08377 eV ==== 
     psi = 0.239*[#   2]+0.239*[#   6]+0.239*[#  10]+0.239*[#  14]+
    |psi|^2 = 0.956
==== e(   4) =    -7.32810 eV ==== 
     psi = 0.242*[#   2]+0.242*[#   6]+0.242*[#  10]+0.242*[#  14]+
    |psi|^2 = 0.971
==== e(   5) =    -4.75960 eV ==== 
     psi = 0.230*[#   4]+0.230*[#   8]+0.229*[#  12]+0.229*[#  16]+0.015*[#   1]+
          +0.015*[#   5]+0.015*[#   9]+0.015*[#  13]+0.004*[#   3]+0.004*[#   7]+
          +0.004*[#  11]+0.004*[#  15]+
    |psi|^2 = 0.996
==== e(   6) =    -4.74166 eV ==== 
     psi = 0.230*[#  12]+0.230*[#  16]+0.230*[#   4]+0.230*[#   8]+0.015*[#   1]+
          +0.015*[#   5]+0.015*[#   9]+0.015*[#  13]+0.004*[#   3]+0.004*[#   7]+
          +0.004*[#  11]+0.004*[#  15]+
    |psi|^2 = 0.997
==== e(   7) =    -4.19103 eV ==== 
     psi = 0.245*[#   3]+0.245*[#   7]+0.245*[#  11]+0.245*[#  15]+0.004*[#   4]+
          +0.004*[#   8]+0.004*[#  12]+0.004*[#  16]+
    |psi|^2 = 0.997
==== e(   8) =    -4.17824 eV ==== 
     psi = 0.245*[#  11]+0.245*[#  15]+0.245*[#   3]+0.245*[#   7]+0.004*[#   4]+
          +0.004*[#   8]+0.004*[#  12]+0.004*[#  16]+
    |psi|^2 = 0.997
==== e(   9) =     3.31982 eV ==== 
     psi = 0.007*[#   4]+0.007*[#   8]+0.007*[#  12]+0.007*[#  16]+
    |psi|^2 = 0.034
==== e(  10) =     3.72729 eV ==== 
     psi = 0.004*[#   2]+0.004*[#   6]+0.004*[#  10]+0.004*[#  14]+0.002*[#   4]+
          +0.002*[#   8]+0.002*[#  12]+0.002*[#  16]+
    |psi|^2 = 0.025
==== e(  11) =     4.45256 eV ==== 
     psi = 0.001*[#   4]+0.001*[#   8]+0.001*[#  12]+0.001*[#  16]+
    |psi|^2 = 0.006
==== e(  12) =     5.66244 eV ==== 
     psi = 0.001*[#   2]+0.001*[#   6]+0.001*[#  10]+0.001*[#  14]+
    |psi|^2 = 0.008

 k =   0.0208333333  0.1563656979  0.0000000000
==== e(   1) =   -19.57748 eV ==== 
     psi = 0.213*[#   1]+0.213*[#   5]+0.213*[#   9]+0.213*[#  13]+0.031*[#   4]+
          +0.031*[#   8]+0.031*[#  12]+0.031*[#  16]+
    |psi|^2 = 0.978
==== e(   2) =   -19.47668 eV ==== 
     psi = 0.215*[#   1]+0.215*[#   5]+0.215*[#   9]+0.215*[#  13]+0.030*[#   4]+
          +0.030*[#   8]+0.030*[#  12]+0.030*[#  16]+
    |psi|^2 = 0.985
==== e(   3) =    -7.93672 eV ==== 
     psi = 0.239*[#   2]+0.239*[#   6]+0.239*[#  10]+0.239*[#  14]+
    |psi|^2 = 0.959
==== e(   4) =    -7.18470 eV ==== 
     psi = 0.243*[#   2]+0.243*[#   6]+0.243*[#  10]+0.243*[#  14]+
    |psi|^2 = 0.974
==== e(   5) =    -5.16939 eV ==== 
     psi = 0.226*[#   4]+0.226*[#   8]+0.226*[#  12]+0.226*[#  16]+0.020*[#   1]+
          +0.020*[#   5]+0.020*[#   9]+0.020*[#  13]+0.003*[#   3]+0.003*[#   7]+
          +0.003*[#  11]+0.003*[#  15]+
    |psi|^2 = 0.996
==== e(   6) =    -5.14917 eV ==== 
     psi = 0.227*[#  12]+0.227*[#  16]+0.226*[#   4]+0.226*[#   8]+0.020*[#   1]+
          +0.020*[#   5]+0.020*[#   9]+0.020*[#  13]+0.003*[#   3]+0.003*[#   7]+
          +0.003*[#  11]+0.003*[#  15]+
    |psi|^2 = 0.997
==== e(   7) =    -4.39398 eV ==== 
     psi = 0.246*[#   3]+0.246*[#   7]+0.246*[#  11]+0.246*[#  15]+0.003*[#   4]+
          +0.003*[#   8]+0.003*[#  12]+0.003*[#  16]+
    |psi|^2 = 0.997
==== e(   8) =    -4.38067 eV ==== 
     psi = 0.246*[#  11]+0.246*[#  15]+0.246*[#   3]+0.246*[#   7]+0.003*[#   4]+
          +0.003*[#   8]+0.003*[#  12]+0.003*[#  16]+
    |psi|^2 = 0.997
==== e(   9) =     3.48514 eV ==== 
     psi = 0.008*[#   4]+0.008*[#   8]+0.008*[#  12]+0.008*[#  16]+
    |psi|^2 = 0.038
==== e(  10) =     3.89450 eV ==== 
     psi = 0.004*[#   2]+0.004*[#   6]+0.004*[#  10]+0.004*[#  14]+0.003*[#   4]+
          +0.003*[#   8]+0.003*[#  12]+0.003*[#  16]+
    |psi|^2 = 0.025
==== e(  11) =     4.62161 eV ==== 
     psi = 0.002*[#   4]+0.002*[#   8]+0.002*[#  12]+0.002*[#  16]+
    |psi|^2 = 0.007
==== e(  12) =     5.83017 eV ==== 
     psi = 0.001*[#   2]+0.001*[#   6]+0.001*[#  10]+0.001*[#  14]+
    |psi|^2 = 0.008

 k =   0.0208333333  0.1804219591  0.0000000000
==== e(   1) =   -19.43462 eV ==== 
     psi = 0.205*[#   1]+0.205*[#   5]+0.205*[#   9]+0.205*[#  13]+0.038*[#   4]+
          +0.038*[#   8]+0.038*[#  12]+0.038*[#  16]+
    |psi|^2 = 0.978
==== e(   2) =   -19.33473 eV ==== 
     psi = 0.208*[#   1]+0.208*[#   5]+0.208*[#   9]+0.208*[#  13]+0.037*[#   4]+
          +0.037*[#   8]+0.037*[#  12]+0.037*[#  16]+
    |psi|^2 = 0.984
==== e(   3) =    -7.76578 eV ==== 
     psi = 0.240*[#   2]+0.240*[#   6]+0.240*[#  10]+0.240*[#  14]+
    |psi|^2 = 0.962
==== e(   4) =    -7.01811 eV ==== 
     psi = 0.244*[#   2]+0.244*[#   6]+0.244*[#  10]+0.244*[#  14]+
    |psi|^2 = 0.976
==== e(   5) =    -5.61903 eV ==== 
     psi = 0.222*[#   4]+0.222*[#   8]+0.221*[#  12]+0.221*[#  16]+0.025*[#   1]+
          +0.025*[#   5]+0.025*[#   9]+0.025*[#  13]+0.002*[#   3]+0.002*[#   7]+
          +0.002*[#  11]+0.002*[#  15]+
    |psi|^2 = 0.995
==== e(   6) =    -5.59633 eV ==== 
     psi = 0.222*[#  12]+0.222*[#  16]+0.222*[#   4]+0.222*[#   8]+0.025*[#   1]+
          +0.025*[#   5]+0.025*[#   9]+0.025*[#  13]+0.002*[#   3]+0.002*[#   7]+
          +0.002*[#  11]+0.002*[#  15]+
    |psi|^2 = 0.996
==== e(   7) =    -4.60943 eV ==== 
     psi = 0.247*[#   3]+0.247*[#   7]+0.247*[#  11]+0.247*[#  15]+0.002*[#   4]+
          +0.002*[#   8]+0.002*[#  12]+0.002*[#  16]+
    |psi|^2 = 0.997
==== e(   8) =    -4.59569 eV ==== 
     psi = 0.247*[#  11]+0.247*[#  15]+0.247*[#   3]+0.247*[#   7]+0.002*[#   4]+
          +0.002*[#   8]+0.002*[#  12]+0.002*[#  16]+
    |psi|^2 = 0.997
==== e(   9) =     3.67792 eV ==== 
     psi = 0.009*[#   4]+0.009*[#   8]+0.009*[#  12]+0.009*[#  16]+
    |psi|^2 = 0.041
==== e(  10) =     4.08939 eV ==== 
     psi = 0.003*[#   2]+0.003*[#   6]+0.003*[#  10]+0.003*[#  14]+0.003*[#   4]+
          +0.003*[#   8]+0.003*[#  12]+0.003*[#  16]+
    |psi|^2 = 0.025
==== e(  11) =     4.81879 eV ==== 
     psi = 0.002*[#   4]+0.002*[#   8]+0.002*[#  12]+0.002*[#  16]+
    |psi|^2 = 0.007
==== e(  12) =     6.02564 eV ==== 
     psi = 0.001*[#   2]+0.001*[#   6]+0.001*[#  10]+0.001*[#  14]+
    |psi|^2 = 0.007

 k =   0.0208333333  0.2044782203  0.0000000000
==== e(   1) =   -19.27165 eV ==== 
     psi = 0.198*[#   1]+0.198*[#   5]+0.198*[#   9]+0.198*[#  13]+0.046*[#   4]+
          +0.046*[#   8]+0.046*[#  12]+0.046*[#  16]+
    |psi|^2 = 0.978
==== e(   2) =   -19.17280 eV ==== 
     psi = 0.201*[#   1]+0.201*[#   5]+0.201*[#   9]+0.201*[#  13]+0.045*[#   4]+
          +0.045*[#   8]+0.045*[#  12]+0.045*[#  16]+
    |psi|^2 = 0.984
==== e(   3) =    -7.57131 eV ==== 
     psi = 0.241*[#   2]+0.241*[#   6]+0.241*[#  10]+0.241*[#  14]+
    |psi|^2 = 0.966
==== e(   4) =    -6.82873 eV ==== 
     psi = 0.244*[#   2]+0.244*[#   6]+0.244*[#  10]+0.244*[#  14]+
    |psi|^2 = 0.979
==== e(   5) =    -6.10041 eV ==== 
     psi = 0.217*[#   4]+0.217*[#   8]+0.217*[#  12]+0.217*[#  16]+0.031*[#   1]+
          +0.031*[#   5]+0.031*[#   9]+0.031*[#  13]+0.001*[#   3]+0.001*[#   7]+
          +0.001*[#  11]+0.001*[#  15]+
    |psi|^2 = 0.994
==== e(   6) =    -6.07512 eV ==== 
     psi = 0.217*[#  12]+0.217*[#  16]+0.217*[#   4]+0.217*[#   8]+0.030*[#   1]+
          +0.030*[#   5]+0.030*[#   9]+0.030*[#  13]+0.001*[#   3]+0.001*[#   7]+
          +0.001*[#  11]+0.001*[#  15]+
    |psi|^2 = 0.996
==== e(   7) =    -4.83182 eV ==== 
     psi = 0.248*[#   3]+0.248*[#   7]+0.248*[#  11]+0.248*[#  15]+0.001*[#   4]+
          +0.001*[#   8]+0.001*[#  12]+0.001*[#  16]+
    |psi|^2 = 0.997
==== e(   8) =    -4.81762 eV ==== 
     psi = 0.248*[#  11]+0.248*[#  15]+0.248*[#   3]+0.248*[#   7]+0.001*[#   4]+
          +0.001*[#   8]+0.001*[#  12]+0.001*[#  16]+
    |psi|^2 = 0.997
==== e(   9) =     3.89809 eV ==== 
     psi = 0.010*[#   4]+0.010*[#   8]+0.010*[#  12]+0.010*[#  16]+
    |psi|^2 = 0.043
==== e(  10) =     4.31184 eV ==== 
     psi = 0.003*[#   4]+0.003*[#   8]+0.003*[#  12]+0.003*[#  16]+0.003*[#   2]+
          +0.003*[#   6]+0.003*[#  10]+0.003*[#  14]+
    |psi|^2 = 0.024
==== e(  11) =     5.04405 eV ==== 
     psi = 0.002*[#   4]+0.002*[#   8]+0.002*[#  12]+0.002*[#  16]+
    |psi|^2 = 0.007
==== e(  12) =     6.24861 eV ==== 
     psi = 
    |psi|^2 = 0.007

 k =   0.0208333333  0.2285344816  0.0000000000
==== e(   1) =   -19.08869 eV ==== 
     psi = 0.191*[#   1]+0.191*[#   5]+0.191*[#   9]+0.191*[#  13]+0.053*[#   4]+
          +0.053*[#   8]+0.053*[#  12]+0.053*[#  16]+
    |psi|^2 = 0.977
==== e(   2) =   -18.99100 eV ==== 
     psi = 0.193*[#   1]+0.193*[#   5]+0.193*[#   9]+0.193*[#  13]+0.052*[#   4]+
          +0.052*[#   8]+0.052*[#  12]+0.052*[#  16]+
    |psi|^2 = 0.984
==== e(   3) =    -7.35371 eV ==== 
     psi = 0.242*[#   2]+0.242*[#   6]+0.242*[#  10]+0.242*[#  14]+
    |psi|^2 = 0.969
==== e(   4) =    -6.61758 eV ==== 
     psi = 0.241*[#   2]+0.241*[#   6]+0.241*[#  10]+0.241*[#  14]+0.004*[#   4]+
          +0.004*[#   8]+0.004*[#  12]+0.004*[#  16]+
    |psi|^2 = 0.982
==== e(   5) =    -6.60642 eV ==== 
     psi = 0.212*[#   4]+0.212*[#   8]+0.211*[#  12]+0.211*[#  16]+0.036*[#   1]+
          +0.036*[#   5]+0.036*[#   9]+0.036*[#  13]+
    |psi|^2 = 0.993
==== e(   6) =    -6.57779 eV ==== 
     psi = 0.209*[#  12]+0.209*[#  16]+0.209*[#   4]+0.209*[#   8]+0.035*[#   1]+
          +0.035*[#   5]+0.035*[#   9]+0.035*[#  13]+0.004*[#   2]+0.004*[#   6]+
          +0.004*[#  10]+0.004*[#  14]+
    |psi|^2 = 0.994
==== e(   7) =    -5.05632 eV ==== 
     psi = 0.248*[#   3]+0.248*[#   7]+0.248*[#  11]+0.248*[#  15]+
    |psi|^2 = 0.997
==== e(   8) =    -5.04163 eV ==== 
     psi = 0.248*[#  11]+0.248*[#  15]+0.248*[#   3]+0.248*[#   7]+
    |psi|^2 = 0.997
==== e(   9) =     4.14554 eV ==== 
     psi = 0.010*[#   4]+0.010*[#   8]+0.010*[#  12]+0.010*[#  16]+
    |psi|^2 = 0.043
==== e(  10) =     4.56162 eV ==== 
     psi = 0.003*[#   4]+0.003*[#   8]+0.003*[#  12]+0.003*[#  16]+0.003*[#   2]+
          +0.003*[#   6]+0.003*[#  10]+0.003*[#  14]+
    |psi|^2 = 0.023
==== e(  11) =     5.29731 eV ==== 
     psi = 0.002*[#   4]+0.002*[#   8]+0.002*[#  12]+0.002*[#  16]+
    |psi|^2 = 0.007
==== e(  12) =     6.49848 eV ==== 
     psi = 
    |psi|^2 = 0.007

 k =   0.0208333333  0.2525907428  0.0000000000
==== e(   1) =   -18.88589 eV ==== 
     psi = 0.184*[#   1]+0.184*[#   5]+0.184*[#   9]+0.184*[#  13]+0.060*[#   4]+
          +0.060*[#   8]+0.060*[#  12]+0.060*[#  16]+
    |psi|^2 = 0.977
==== e(   2) =   -18.78948 eV ==== 
     psi = 0.186*[#   1]+0.186*[#   5]+0.186*[#   9]+0.186*[#  13]+0.059*[#   4]+
          +0.059*[#   8]+0.059*[#  12]+0.059*[#  16]+
    |psi|^2 = 0.984
==== e(   3) =    -7.13304 eV ==== 
     psi = 0.185*[#   4]+0.185*[#   8]+0.185*[#  12]+0.185*[#  16]+0.036*[#   1]+
          +0.036*[#   5]+0.036*[#   9]+0.036*[#  13]+0.026*[#   2]+0.026*[#   6]+
          +0.026*[#  10]+0.026*[#  14]+
    |psi|^2 = 0.991
==== e(   4) =    -7.11119 eV ==== 
     psi = 0.217*[#   2]+0.217*[#   6]+0.217*[#  10]+0.217*[#  14]+0.021*[#   4]+
          +0.021*[#   8]+0.021*[#  12]+0.021*[#  16]+0.005*[#   1]+0.005*[#   5]+
          +0.005*[#   9]+0.005*[#  13]+
    |psi|^2 = 0.975
==== e(   5) =    -7.10019 eV ==== 
     psi = 0.207*[#  12]+0.207*[#  16]+0.207*[#   4]+0.207*[#   8]+0.041*[#   1]+
          +0.041*[#   5]+0.041*[#   9]+0.041*[#  13]+
    |psi|^2 = 0.995
==== e(   6) =    -6.38318 eV ==== 
     psi = 0.246*[#   2]+0.246*[#   6]+0.246*[#  10]+0.246*[#  14]+
    |psi|^2 = 0.984
==== e(   7) =    -5.27859 eV ==== 
     psi = 0.248*[#   3]+0.248*[#   7]+0.248*[#  11]+0.248*[#  15]+
    |psi|^2 = 0.997
==== e(   8) =    -5.26350 eV ==== 
     psi = 0.248*[#  11]+0.248*[#  15]+0.248*[#   3]+0.248*[#   7]+
    |psi|^2 = 0.997
==== e(   9) =     4.42013 eV ==== 
     psi = 0.010*[#   4]+0.010*[#   8]+0.010*[#  12]+0.010*[#  16]+
    |psi|^2 = 0.041
==== e(  10) =     4.83826 eV ==== 
     psi = 0.003*[#   4]+0.003*[#   8]+0.003*[#  12]+0.003*[#  16]+0.002*[#   2]+
          +0.002*[#   6]+0.002*[#  10]+0.002*[#  14]+
    |psi|^2 = 0.022
==== e(  11) =     5.57839 eV ==== 
     psi = 0.001*[#   4]+0.001*[#   8]+0.001*[#  12]+0.001*[#  16]+
    |psi|^2 = 0.006
==== e(  12) =     6.77294 eV ==== 
     psi = 0.002*[#   2]+0.002*[#   6]+0.002*[#  10]+0.002*[#  14]+
    |psi|^2 = 0.010

 k =   0.0208333333  0.2766470040  0.0000000000
==== e(   1) =   -18.66344 eV ==== 
     psi = 0.177*[#   1]+0.177*[#   5]+0.177*[#   9]+0.177*[#  13]+0.067*[#   4]+
          +0.067*[#   8]+0.067*[#  12]+0.067*[#  16]+
    |psi|^2 = 0.977
==== e(   2) =   -18.56843 eV ==== 
     psi = 0.180*[#   1]+0.180*[#   5]+0.180*[#   9]+0.180*[#  13]+0.066*[#   4]+
          +0.066*[#   8]+0.066*[#  12]+0.066*[#  16]+
    |psi|^2 = 0.984
==== e(   3) =    -7.66816 eV ==== 
     psi = 0.201*[#   4]+0.201*[#   8]+0.201*[#  12]+0.201*[#  16]+0.046*[#   1]+
          +0.046*[#   5]+0.046*[#   9]+0.046*[#  13]+
    |psi|^2 = 0.992
==== e(   4) =    -7.63474 eV ==== 
     psi = 0.202*[#   4]+0.202*[#   8]+0.202*[#  12]+0.202*[#  16]+0.046*[#   1]+
          +0.046*[#   5]+0.046*[#   9]+0.046*[#  13]+
    |psi|^2 = 0.994
==== e(   5) =    -6.85115 eV ==== 
     psi = 0.244*[#   2]+0.244*[#   6]+0.244*[#  10]+0.244*[#  14]+
    |psi|^2 = 0.977
==== e(   6) =    -6.12846 eV ==== 
     psi = 0.246*[#   2]+0.246*[#   6]+0.246*[#  10]+0.246*[#  14]+
    |psi|^2 = 0.986
==== e(   7) =    -5.49525 eV ==== 
     psi = 0.248*[#   3]+0.248*[#   7]+0.248*[#  11]+0.248*[#  15]+
    |psi|^2 = 0.997
==== e(   8) =    -5.47976 eV ==== 
     psi = 0.248*[#  11]+0.248*[#  15]+0.248*[#   3]+0.248*[#   7]+
    |psi|^2 = 0.997
==== e(   9) =     4.72163 eV ==== 
     psi = 0.009*[#   4]+0.009*[#   8]+0.009*[#  12]+0.009*[#  16]+
    |psi|^2 = 0.038
==== e(  10) =     5.14063 eV ==== 
     psi = 0.003*[#   4]+0.003*[#   8]+0.003*[#  12]+0.003*[#  16]+0.002*[#   2]+
          +0.002*[#   6]+0.002*[#  10]+0.002*[#  14]+
    |psi|^2 = 0.022
==== e(  11) =     5.88675 eV ==== 
     psi = 0.001*[#   4]+0.001*[#   8]+0.001*[#  12]+0.001*[#  16]+
    |psi|^2 = 0.006
==== e(  12) =     6.75633 eV ==== 
     psi = 0.205*[#   2]+0.205*[#   6]+0.204*[#  10]+0.204*[#  14]+
    |psi|^2 = 0.822

 k =   0.0208333333  0.3007032652  0.0000000000
==== e(   1) =   -18.42156 eV ==== 
     psi = 0.171*[#   1]+0.171*[#   5]+0.171*[#   9]+0.171*[#  13]+0.073*[#   4]+
          +0.073*[#   8]+0.073*[#  12]+0.073*[#  16]+
    |psi|^2 = 0.977
==== e(   2) =   -18.32805 eV ==== 
     psi = 0.173*[#   1]+0.173*[#   5]+0.173*[#   9]+0.173*[#  13]+0.072*[#   4]+
          +0.072*[#   8]+0.072*[#  12]+0.072*[#  16]+
    |psi|^2 = 0.983
==== e(   3) =    -8.21366 eV ==== 
     psi = 0.197*[#   4]+0.197*[#   8]+0.196*[#  12]+0.196*[#  16]+0.051*[#   1]+
          +0.051*[#   5]+0.051*[#   9]+0.051*[#  13]+
    |psi|^2 = 0.991
==== e(   4) =    -8.17747 eV ==== 
     psi = 0.197*[#   4]+0.197*[#   8]+0.198*[#  12]+0.198*[#  16]+0.051*[#   1]+
          +0.051*[#   5]+0.051*[#   9]+0.051*[#  13]+
    |psi|^2 = 0.994
==== e(   5) =    -6.56786 eV ==== 
     psi = 0.245*[#   2]+0.245*[#   6]+0.245*[#  10]+0.245*[#  14]+
    |psi|^2 = 0.980
==== e(   6) =    -5.85359 eV ==== 
     psi = 0.247*[#   2]+0.247*[#   6]+0.247*[#  10]+0.247*[#  14]+
    |psi|^2 = 0.988
==== e(   7) =    -5.70333 eV ==== 
     psi = 0.248*[#   3]+0.248*[#   7]+0.248*[#  11]+0.248*[#  15]+
    |psi|^2 = 0.997
==== e(   8) =    -5.68749 eV ==== 
     psi = 0.248*[#  11]+0.248*[#  15]+0.248*[#   3]+0.248*[#   7]+
    |psi|^2 = 0.997
==== e(   9) =     5.04964 eV ==== 
     psi = 0.008*[#   4]+0.008*[#   8]+0.008*[#  12]+0.008*[#  16]+
    |psi|^2 = 0.034
==== e(  10) =     5.46431 eV ==== 
     psi = 0.004*[#   2]+0.004*[#   6]+0.004*[#  10]+0.004*[#  14]+0.003*[#   4]+
          +0.003*[#   8]+0.003*[#  12]+0.003*[#  16]+
    |psi|^2 = 0.028
==== e(  11) =     6.18313 eV ==== 
     psi = 0.131*[#   2]+0.131*[#   6]+0.131*[#  10]+0.131*[#  14]+
    |psi|^2 = 0.528
==== e(  12) =     6.25420 eV ==== 
     psi = 0.098*[#   2]+0.098*[#   6]+0.098*[#  10]+0.098*[#  14]+
    |psi|^2 = 0.395

 k =   0.0208333333  0.3247595264  0.0000000000
==== e(   1) =   -18.16048 eV ==== 
     psi = 0.165*[#   1]+0.165*[#   5]+0.165*[#   9]+0.165*[#  13]+0.079*[#   4]+
          +0.079*[#   8]+0.079*[#  12]+0.079*[#  16]+
    |psi|^2 = 0.977
==== e(   2) =   -18.06858 eV ==== 
     psi = 0.167*[#   1]+0.167*[#   5]+0.167*[#   9]+0.167*[#  13]+0.078*[#   4]+
          +0.078*[#   8]+0.078*[#  12]+0.078*[#  16]+
    |psi|^2 = 0.983
==== e(   3) =    -8.76341 eV ==== 
     psi = 0.192*[#   4]+0.192*[#   8]+0.192*[#  12]+0.192*[#  16]+0.056*[#   1]+
          +0.056*[#   5]+0.056*[#   9]+0.056*[#  13]+
    |psi|^2 = 0.990
==== e(   4) =    -8.72446 eV ==== 
     psi = 0.193*[#   4]+0.193*[#   8]+0.193*[#  12]+0.193*[#  16]+0.055*[#   1]+
          +0.055*[#   5]+0.055*[#   9]+0.055*[#  13]+
    |psi|^2 = 0.993
==== e(   5) =    -6.26450 eV ==== 
     psi = 0.246*[#   2]+0.246*[#   6]+0.246*[#  10]+0.246*[#  14]+
    |psi|^2 = 0.984
==== e(   6) =    -5.90049 eV ==== 
     psi = 0.248*[#   3]+0.248*[#   7]+0.248*[#  11]+0.248*[#  15]+
    |psi|^2 = 0.997
==== e(   7) =    -5.88429 eV ==== 
     psi = 0.249*[#  11]+0.249*[#  15]+0.248*[#   3]+0.248*[#   7]+
    |psi|^2 = 0.997
==== e(   8) =    -5.55966 eV ==== 
     psi = 0.248*[#   2]+0.248*[#   6]+0.248*[#  10]+0.248*[#  14]+
    |psi|^2 = 0.991
==== e(   9) =     5.40164 eV ==== 
     psi = 0.006*[#   4]+0.006*[#   8]+0.006*[#  12]+0.006*[#  16]+0.003*[#   2]+
          +0.003*[#   6]+0.003*[#  10]+0.003*[#  14]+
    |psi|^2 = 0.040
==== e(  10) =     5.63402 eV ==== 
     psi = 0.229*[#   2]+0.229*[#   6]+0.229*[#  10]+0.229*[#  14]+
    |psi|^2 = 0.916
==== e(  11) =     5.75871 eV ==== 
     psi = 0.050*[#   2]+0.050*[#   6]+0.050*[#  10]+0.050*[#  14]+0.002*[#   4]+
          +0.002*[#   8]+0.002*[#  12]+0.002*[#  16]+
    |psi|^2 = 0.210
==== e(  12) =     6.14076 eV ==== 
     psi = 0.189*[#   2]+0.189*[#   6]+0.189*[#  10]+0.189*[#  14]+
    |psi|^2 = 0.757

 k =   0.0208333333  0.3488157876  0.0000000000
==== e(   1) =   -17.88055 eV ==== 
     psi = 0.160*[#   1]+0.160*[#   5]+0.160*[#   9]+0.160*[#  13]+0.084*[#   4]+
          +0.084*[#   8]+0.084*[#  12]+0.084*[#  16]+
    |psi|^2 = 0.977
==== e(   2) =   -17.79034 eV ==== 
     psi = 0.162*[#   1]+0.162*[#   5]+0.162*[#   9]+0.162*[#  13]+0.084*[#   4]+
          +0.084*[#   8]+0.084*[#  12]+0.084*[#  16]+
    |psi|^2 = 0.984
==== e(   3) =    -9.31389 eV ==== 
     psi = 0.187*[#   4]+0.187*[#   8]+0.187*[#  12]+0.187*[#  16]+0.060*[#   1]+
          +0.060*[#   5]+0.060*[#   9]+0.060*[#  13]+
    |psi|^2 = 0.990
==== e(   4) =    -9.27218 eV ==== 
     psi = 0.188*[#   4]+0.188*[#   8]+0.188*[#  12]+0.188*[#  16]+0.060*[#   1]+
          +0.060*[#   5]+0.060*[#   9]+0.060*[#  13]+
    |psi|^2 = 0.992
==== e(   5) =    -6.08460 eV ==== 
     psi = 0.248*[#   3]+0.248*[#   7]+0.248*[#  11]+0.248*[#  15]+
    |psi|^2 = 0.997
==== e(   6) =    -6.06810 eV ==== 
     psi = 0.249*[#  11]+0.249*[#  15]+0.248*[#   3]+0.248*[#   7]+
    |psi|^2 = 0.997
==== e(   7) =    -5.94249 eV ==== 
     psi = 0.247*[#   2]+0.247*[#   6]+0.247*[#  10]+0.247*[#  14]+
    |psi|^2 = 0.987
==== e(   8) =    -5.24830 eV ==== 
     psi = 0.248*[#   2]+0.248*[#   6]+0.248*[#  10]+0.248*[#  14]+
    |psi|^2 = 0.992
==== e(   9) =     5.04057 eV ==== 
     psi = 0.233*[#   2]+0.233*[#   6]+0.233*[#  10]+0.233*[#  14]+
    |psi|^2 = 0.930
==== e(  10) =     5.45641 eV ==== 
     psi = 0.226*[#   2]+0.226*[#   6]+0.226*[#  10]+0.226*[#  14]+
    |psi|^2 = 0.903
==== e(  11) =     5.78551 eV ==== 
     psi = 0.005*[#   4]+0.005*[#   8]+0.005*[#  12]+0.005*[#  16]+
    |psi|^2 = 0.025
==== e(  12) =     6.26862 eV ==== 
     psi = 0.014*[#   2]+0.014*[#   6]+0.014*[#  10]+0.014*[#  14]+0.001*[#   4]+
          +0.001*[#   8]+0.001*[#  12]+0.001*[#  16]+
    |psi|^2 = 0.062

 k =   0.0208333333  0.3728720489  0.0000000000
==== e(   1) =   -17.58212 eV ==== 
     psi = 0.155*[#   1]+0.155*[#   5]+0.155*[#   9]+0.155*[#  13]+0.089*[#   4]+
          +0.089*[#   8]+0.089*[#  12]+0.089*[#  16]+
    |psi|^2 = 0.977
==== e(   2) =   -17.49370 eV ==== 
     psi = 0.157*[#   1]+0.157*[#   5]+0.157*[#   9]+0.157*[#  13]+0.089*[#   4]+
          +0.089*[#   8]+0.089*[#  12]+0.089*[#  16]+
    |psi|^2 = 0.984
==== e(   3) =    -9.86219 eV ==== 
     psi = 0.183*[#   4]+0.183*[#   8]+0.183*[#  12]+0.183*[#  16]+0.064*[#   1]+
          +0.064*[#   5]+0.064*[#   9]+0.064*[#  13]+
    |psi|^2 = 0.989
==== e(   4) =    -9.81768 eV ==== 
     psi = 0.184*[#   4]+0.184*[#   8]+0.184*[#  12]+0.184*[#  16]+0.064*[#   1]+
          +0.064*[#   5]+0.064*[#   9]+0.064*[#  13]+
    |psi|^2 = 0.992
==== e(   5) =    -6.25404 eV ==== 
     psi = 0.248*[#   3]+0.248*[#   7]+0.248*[#  11]+0.248*[#  15]+
    |psi|^2 = 0.996
==== e(   6) =    -6.23731 eV ==== 
     psi = 0.249*[#  11]+0.249*[#  15]+0.248*[#   3]+0.248*[#   7]+
    |psi|^2 = 0.997
==== e(   7) =    -5.60381 eV ==== 
     psi = 0.247*[#   2]+0.247*[#   6]+0.247*[#  10]+0.247*[#  14]+
    |psi|^2 = 0.990
==== e(   8) =    -4.92148 eV ==== 
     psi = 0.248*[#   2]+0.248*[#   6]+0.248*[#  10]+0.248*[#  14]+
    |psi|^2 = 0.994
==== e(   9) =     4.44986 eV ==== 
     psi = 0.233*[#   2]+0.233*[#   6]+0.233*[#  10]+0.233*[#  14]+
    |psi|^2 = 0.933
==== e(  10) =     4.91249 eV ==== 
     psi = 0.235*[#   2]+0.235*[#   6]+0.235*[#  10]+0.235*[#  14]+
    |psi|^2 = 0.940
==== e(  11) =     6.18779 eV ==== 
     psi = 0.003*[#   4]+0.003*[#   8]+0.003*[#  12]+0.003*[#  16]+0.002*[#   1]+
          +0.002*[#   5]+0.002*[#   9]+0.002*[#  13]+
    |psi|^2 = 0.020
==== e(  12) =     6.66255 eV ==== 
     psi = 0.004*[#   2]+0.004*[#   6]+0.004*[#  10]+0.004*[#  14]+0.001*[#   1]+
          +0.001*[#   5]+0.001*[#   9]+0.001*[#  13]+
    |psi|^2 = 0.024

 k =   0.0208333333  0.3969283101  0.0000000000
==== e(   1) =   -17.26575 eV ==== 
     psi = 0.150*[#   1]+0.150*[#   5]+0.150*[#   9]+0.150*[#  13]+0.094*[#   4]+
          +0.094*[#   8]+0.094*[#  12]+0.094*[#  16]+
    |psi|^2 = 0.978
==== e(   2) =   -17.17919 eV ==== 
     psi = 0.152*[#   1]+0.152*[#   5]+0.152*[#   9]+0.152*[#  13]+0.093*[#   4]+
          +0.093*[#   8]+0.093*[#  12]+0.093*[#  16]+
    |psi|^2 = 0.984
==== e(   3) =   -10.40543 eV ==== 
     psi = 0.179*[#   4]+0.179*[#   8]+0.179*[#  12]+0.179*[#  16]+0.068*[#   1]+
          +0.068*[#   5]+0.068*[#   9]+0.068*[#  13]+
[...]
     psi = 
    |psi|^2 = 0.003
==== e(  12) =    10.70138 eV ==== 
     psi = 0.008*[#   1]+0.008*[#   5]+0.008*[#   9]+0.008*[#  13]+0.003*[#   4]+
          +0.003*[#   8]+0.003*[#  12]+0.003*[#  16]+
    |psi|^2 = 0.048

 k =  -0.3125000000  0.5172096161  0.0000000000
==== e(   1) =   -13.98364 eV ==== 
     psi = 0.123*[#   1]+0.123*[#   5]+0.123*[#   9]+0.123*[#  13]+0.083*[#   4]+
          +0.083*[#   8]+0.083*[#  12]+0.083*[#  16]+0.041*[#   3]+0.041*[#   7]+
          +0.041*[#  11]+0.041*[#  15]+
    |psi|^2 = 0.989
==== e(   2) =   -13.91570 eV ==== 
     psi = 0.124*[#   1]+0.124*[#   5]+0.124*[#   9]+0.124*[#  13]+0.083*[#   4]+
          +0.083*[#   8]+0.083*[#  12]+0.083*[#  16]+0.041*[#   3]+0.041*[#   7]+
          +0.041*[#  11]+0.041*[#  15]+
    |psi|^2 = 0.991
==== e(   3) =   -12.43504 eV ==== 
     psi = 0.106*[#   1]+0.106*[#   5]+0.106*[#   9]+0.106*[#  13]+0.083*[#   3]+
          +0.083*[#   7]+0.083*[#  11]+0.083*[#  15]+0.059*[#   4]+0.059*[#   8]+
          +0.059*[#  12]+0.059*[#  16]+
    |psi|^2 = 0.992
==== e(   4) =   -12.37657 eV ==== 
     psi = 0.107*[#   1]+0.107*[#   5]+0.107*[#   9]+0.107*[#  13]+0.083*[#   3]+
          +0.083*[#   7]+0.083*[#  11]+0.083*[#  15]+0.059*[#   4]+0.059*[#   8]+
          +0.059*[#  12]+0.059*[#  16]+
    |psi|^2 = 0.994
==== e(   5) =   -10.69192 eV ==== 
     psi = 0.124*[#   3]+0.124*[#   7]+0.124*[#  11]+0.124*[#  15]+0.111*[#   4]+
          +0.111*[#   8]+0.111*[#  12]+0.111*[#  16]+0.010*[#   1]+0.010*[#   5]+
          +0.010*[#   9]+0.010*[#  13]+
    |psi|^2 = 0.982
==== e(   6) =   -10.64837 eV ==== 
     psi = 0.125*[#   3]+0.125*[#   7]+0.125*[#  11]+0.125*[#  15]+0.112*[#   4]+
          +0.112*[#   8]+0.112*[#  12]+0.112*[#  16]+0.010*[#   1]+0.010*[#   5]+
          +0.010*[#   9]+0.010*[#  13]+
    |psi|^2 = 0.985
==== e(   7) =    -1.71875 eV ==== 
     psi = 0.249*[#   2]+0.249*[#   6]+0.249*[#  10]+0.249*[#  14]+
    |psi|^2 = 0.995
==== e(   8) =    -1.18515 eV ==== 
     psi = 0.249*[#   2]+0.249*[#   6]+0.249*[#  10]+0.249*[#  14]+
    |psi|^2 = 0.995
==== e(   9) =     0.20734 eV ==== 
     psi = 0.247*[#   2]+0.247*[#   6]+0.247*[#  10]+0.247*[#  14]+
    |psi|^2 = 0.990
==== e(  10) =     0.69551 eV ==== 
     psi = 0.248*[#   2]+0.248*[#   6]+0.248*[#  10]+0.248*[#  14]+
    |psi|^2 = 0.990
==== e(  11) =     9.49332 eV ==== 
     psi = 
    |psi|^2 = 0.003
==== e(  12) =    10.92441 eV ==== 
     psi = 
    |psi|^2 = 0.004

 k =   0.6041666667  0.0120281306  0.0000000000
==== e(   1) =   -13.98373 eV ==== 
     psi = 0.123*[#   1]+0.123*[#   5]+0.123*[#   9]+0.123*[#  13]+0.106*[#   3]+
          +0.106*[#   7]+0.106*[#  11]+0.106*[#  15]+0.018*[#   4]+0.018*[#   8]+
          +0.018*[#  12]+0.018*[#  16]+
    |psi|^2 = 0.989
==== e(   2) =   -13.91579 eV ==== 
     psi = 0.124*[#   1]+0.124*[#   5]+0.124*[#   9]+0.124*[#  13]+0.106*[#   3]+
          +0.106*[#   7]+0.106*[#  11]+0.106*[#  15]+0.018*[#   4]+0.018*[#   8]+
          +0.018*[#  12]+0.018*[#  16]+
    |psi|^2 = 0.991
==== e(   3) =   -12.43466 eV ==== 
     psi = 0.106*[#   1]+0.106*[#   5]+0.106*[#   9]+0.106*[#  13]+0.083*[#   3]+
          +0.083*[#   7]+0.083*[#  11]+0.083*[#  15]+0.058*[#   4]+0.058*[#   8]+
          +0.058*[#  12]+0.058*[#  16]+
    |psi|^2 = 0.992
==== e(   4) =   -12.37619 eV ==== 
     psi = 0.107*[#   1]+0.107*[#   5]+0.107*[#   9]+0.107*[#  13]+0.083*[#   3]+
          +0.083*[#   7]+0.083*[#  11]+0.083*[#  15]+0.058*[#   4]+0.058*[#   8]+
          +0.058*[#  12]+0.058*[#  16]+
    |psi|^2 = 0.994
==== e(   5) =   -10.69223 eV ==== 
     psi = 0.167*[#   4]+0.167*[#   8]+0.167*[#  12]+0.167*[#  16]+0.068*[#   3]+
          +0.068*[#   7]+0.068*[#  11]+0.068*[#  15]+0.010*[#   1]+0.010*[#   5]+
          +0.010*[#   9]+0.010*[#  13]+
    |psi|^2 = 0.982
==== e(   6) =   -10.64869 eV ==== 
     psi = 0.168*[#   4]+0.168*[#   8]+0.168*[#  12]+0.168*[#  16]+0.069*[#   3]+
          +0.069*[#   7]+0.069*[#  11]+0.069*[#  15]+0.010*[#   1]+0.010*[#   5]+
          +0.010*[#   9]+0.010*[#  13]+
    |psi|^2 = 0.985
==== e(   7) =    -1.71909 eV ==== 
     psi = 0.249*[#   2]+0.249*[#   6]+0.249*[#  10]+0.249*[#  14]+
    |psi|^2 = 0.995
==== e(   8) =    -1.18551 eV ==== 
     psi = 0.249*[#   2]+0.249*[#   6]+0.249*[#  10]+0.249*[#  14]+
    |psi|^2 = 0.995
==== e(   9) =     0.20778 eV ==== 
     psi = 0.247*[#   2]+0.247*[#   6]+0.247*[#  10]+0.247*[#  14]+
    |psi|^2 = 0.990
==== e(  10) =     0.69598 eV ==== 
     psi = 0.248*[#   2]+0.248*[#   6]+0.248*[#  10]+0.248*[#  14]+
    |psi|^2 = 0.990
==== e(  11) =     9.49318 eV ==== 
     psi = 
    |psi|^2 = 0.003
==== e(  12) =    10.92430 eV ==== 
     psi = 
    |psi|^2 = 0.004

 k =  -0.3333333333  0.5292377468  0.0000000000
==== e(   1) =   -13.66200 eV ==== 
     psi = 0.124*[#   1]+0.124*[#   5]+0.124*[#   9]+0.124*[#  13]+0.077*[#   4]+
          +0.077*[#   8]+0.077*[#  12]+0.077*[#  16]+0.046*[#   3]+0.046*[#   7]+
          +0.046*[#  11]+0.046*[#  15]+
    |psi|^2 = 0.991
==== e(   2) =   -13.59564 eV ==== 
     psi = 0.125*[#   1]+0.125*[#   5]+0.125*[#   9]+0.125*[#  13]+0.077*[#   4]+
          +0.077*[#   8]+0.077*[#  12]+0.077*[#  16]+0.046*[#   3]+0.046*[#   7]+
          +0.046*[#  11]+0.046*[#  15]+
    |psi|^2 = 0.993
==== e(   3) =   -12.71285 eV ==== 
     psi = 0.106*[#   1]+0.106*[#   5]+0.106*[#   9]+0.106*[#  13]+0.099*[#   3]+
          +0.099*[#   7]+0.099*[#  11]+0.099*[#  15]+0.043*[#   4]+0.043*[#   8]+
          +0.043*[#  12]+0.043*[#  16]+
    |psi|^2 = 0.991
==== e(   4) =   -12.65297 eV ==== 
     psi = 0.106*[#   1]+0.106*[#   5]+0.106*[#   9]+0.106*[#  13]+0.099*[#   3]+
          +0.099*[#   7]+0.099*[#  11]+0.099*[#  15]+0.043*[#   4]+0.043*[#   8]+
          +0.043*[#  12]+0.043*[#  16]+
    |psi|^2 = 0.993
==== e(   5) =   -10.80049 eV ==== 
     psi = 0.131*[#   4]+0.131*[#   8]+0.131*[#  12]+0.131*[#  16]+0.106*[#   3]+
          +0.106*[#   7]+0.106*[#  11]+0.106*[#  15]+0.009*[#   1]+0.009*[#   5]+
          +0.009*[#   9]+0.009*[#  13]+
    |psi|^2 = 0.982
==== e(   6) =   -10.75649 eV ==== 
     psi = 0.131*[#   4]+0.131*[#   8]+0.131*[#  12]+0.131*[#  16]+0.106*[#   3]+
          +0.106*[#   7]+0.106*[#  11]+0.106*[#  15]+0.009*[#   1]+0.009*[#   5]+
          +0.009*[#   9]+0.009*[#  13]+
    |psi|^2 = 0.985
==== e(   7) =    -1.42611 eV ==== 
     psi = 0.249*[#   2]+0.249*[#   6]+0.249*[#  10]+0.249*[#  14]+
    |psi|^2 = 0.995
==== e(   8) =    -0.90558 eV ==== 
     psi = 0.249*[#   2]+0.249*[#   6]+0.249*[#  10]+0.249*[#  14]+
    |psi|^2 = 0.995
==== e(   9) =    -0.08364 eV ==== 
     psi = 0.248*[#   2]+0.248*[#   6]+0.248*[#  10]+0.248*[#  14]+
    |psi|^2 = 0.990
==== e(  10) =     0.41365 eV ==== 
     psi = 0.248*[#   2]+0.248*[#   6]+0.248*[#  10]+0.248*[#  14]+
    |psi|^2 = 0.991
==== e(  11) =     9.42436 eV ==== 
     psi = 
    |psi|^2 = 0.003
==== e(  12) =    11.00261 eV ==== 
     psi = 
    |psi|^2 = 0.004

 k =   0.6250000000  0.0240562612  0.0000000000
==== e(   1) =   -13.66210 eV ==== 
     psi = 0.125*[#   1]+0.125*[#   5]+0.124*[#   9]+0.124*[#  13]+0.094*[#   3]+
          +0.094*[#   7]+0.094*[#  11]+0.094*[#  15]+0.029*[#   4]+0.029*[#   8]+
          +0.029*[#  12]+0.029*[#  16]+
    |psi|^2 = 0.991
==== e(   2) =   -13.59574 eV ==== 
     psi = 0.125*[#   1]+0.125*[#   5]+0.125*[#   9]+0.125*[#  13]+0.094*[#   3]+
          +0.094*[#   7]+0.094*[#  11]+0.094*[#  15]+0.029*[#   4]+0.029*[#   8]+
          +0.029*[#  12]+0.029*[#  16]+
    |psi|^2 = 0.993
==== e(   3) =   -12.71260 eV ==== 
     psi = 0.106*[#   1]+0.106*[#   5]+0.106*[#   9]+0.106*[#  13]+0.083*[#   3]+
          +0.083*[#   7]+0.083*[#  11]+0.083*[#  15]+0.059*[#   4]+0.059*[#   8]+
          +0.059*[#  12]+0.059*[#  16]+
    |psi|^2 = 0.991
==== e(   4) =   -12.65271 eV ==== 
     psi = 0.106*[#   1]+0.106*[#   5]+0.106*[#   9]+0.106*[#  13]+0.083*[#   3]+
          +0.083*[#   7]+0.083*[#  11]+0.083*[#  15]+0.059*[#   4]+0.059*[#   8]+
          +0.059*[#  12]+0.059*[#  16]+
    |psi|^2 = 0.993
==== e(   5) =   -10.80065 eV ==== 
     psi = 0.158*[#   4]+0.158*[#   8]+0.158*[#  12]+0.158*[#  16]+0.078*[#   3]+
          +0.078*[#   7]+0.078*[#  11]+0.078*[#  15]+0.009*[#   1]+0.009*[#   5]+
          +0.009*[#   9]+0.009*[#  13]+
    |psi|^2 = 0.982
==== e(   6) =   -10.75665 eV ==== 
     psi = 0.158*[#   4]+0.158*[#   8]+0.159*[#  12]+0.159*[#  16]+0.079*[#   3]+
          +0.079*[#   7]+0.079*[#  11]+0.079*[#  15]+0.009*[#   1]+0.009*[#   5]+
          +0.009*[#   9]+0.009*[#  13]+
    |psi|^2 = 0.985
==== e(   7) =    -1.42636 eV ==== 
     psi = 0.249*[#   2]+0.249*[#   6]+0.249*[#  10]+0.249*[#  14]+
    |psi|^2 = 0.995
==== e(   8) =    -0.90585 eV ==== 
     psi = 0.249*[#   2]+0.249*[#   6]+0.249*[#  10]+0.249*[#  14]+
    |psi|^2 = 0.995
==== e(   9) =    -0.08333 eV ==== 
     psi = 0.248*[#   2]+0.248*[#   6]+0.248*[#  10]+0.248*[#  14]+
    |psi|^2 = 0.990
==== e(  10) =     0.41397 eV ==== 
     psi = 0.248*[#   2]+0.248*[#   6]+0.248*[#  10]+0.248*[#  14]+
    |psi|^2 = 0.991
==== e(  11) =     9.42429 eV ==== 
     psi = 
    |psi|^2 = 0.003
==== e(  12) =    11.00255 eV ==== 
     psi = 
    |psi|^2 = 0.004

 k =  -0.3541666667  0.5412658774  0.0000000000
==== e(   1) =   -13.48958 eV ==== 
     psi = 0.128*[#   1]+0.128*[#   5]+0.128*[#   9]+0.128*[#  13]+0.064*[#   3]+
          +0.064*[#   7]+0.064*[#  11]+0.064*[#  15]+0.056*[#   4]+0.056*[#   8]+
          +0.056*[#  12]+0.056*[#  16]+
    |psi|^2 = 0.992
==== e(   2) =   -13.42391 eV ==== 
     psi = 0.128*[#   1]+0.128*[#   5]+0.129*[#   9]+0.129*[#  13]+0.064*[#   3]+
          +0.064*[#   7]+0.064*[#  11]+0.064*[#  15]+0.056*[#   4]+0.056*[#   8]+
          +0.056*[#  12]+0.056*[#  16]+
    |psi|^2 = 0.994
==== e(   3) =   -12.87138 eV ==== 
     psi = 0.103*[#   1]+0.103*[#   5]+0.103*[#   9]+0.103*[#  13]+0.098*[#   3]+
          +0.098*[#   7]+0.098*[#  11]+0.098*[#  15]+0.046*[#   4]+0.046*[#   8]+
          +0.046*[#  12]+0.046*[#  16]+
    |psi|^2 = 0.990
==== e(   4) =   -12.81088 eV ==== 
     psi = 0.103*[#   1]+0.103*[#   5]+0.103*[#   9]+0.103*[#  13]+0.098*[#   3]+
          +0.098*[#   7]+0.099*[#  11]+0.099*[#  15]+0.046*[#   4]+0.046*[#   8]+
          +0.046*[#  12]+0.046*[#  16]+
    |psi|^2 = 0.992
==== e(   5) =   -10.83604 eV ==== 
     psi = 0.146*[#   4]+0.146*[#   8]+0.146*[#  12]+0.146*[#  16]+0.090*[#   3]+
          +0.090*[#   7]+0.090*[#  11]+0.090*[#  15]+0.009*[#   1]+0.009*[#   5]+
          +0.009*[#   9]+0.009*[#  13]+
    |psi|^2 = 0.981
==== e(   6) =   -10.79189 eV ==== 
     psi = 0.146*[#   4]+0.146*[#   8]+0.147*[#  12]+0.147*[#  16]+0.091*[#   3]+
          +0.091*[#   7]+0.091*[#  11]+0.091*[#  15]+0.009*[#   1]+0.009*[#   5]+
          +0.009*[#   9]+0.009*[#  13]+
    |psi|^2 = 0.985
==== e(   7) =    -1.29364 eV ==== 
     psi = 0.249*[#   2]+0.249*[#   6]+0.249*[#  10]+0.249*[#  14]+
    |psi|^2 = 0.995
==== e(   8) =    -0.77981 eV ==== 
     psi = 0.249*[#   2]+0.249*[#   6]+0.249*[#  10]+0.249*[#  14]+
    |psi|^2 = 0.995
==== e(   9) =    -0.21550 eV ==== 
     psi = 0.248*[#   2]+0.248*[#   6]+0.248*[#  10]+0.248*[#  14]+
    |psi|^2 = 0.990
==== e(  10) =     0.28717 eV ==== 
     psi = 0.248*[#   2]+0.248*[#   6]+0.248*[#  10]+0.248*[#  14]+
    |psi|^2 = 0.991
==== e(  11) =     9.40074 eV ==== 
     psi = 
    |psi|^2 = 0.003
==== e(  12) =    11.02219 eV ==== 
     psi = 
    |psi|^2 = 0.004

 k =   0.6250000000 -0.0000000000  0.0000000000
==== e(   1) =   -13.64869 eV ==== 
     psi = 0.123*[#   1]+0.123*[#   5]+0.122*[#   9]+0.122*[#  13]+0.099*[#   3]+
          +0.099*[#   7]+0.099*[#  11]+0.099*[#  15]+0.027*[#   4]+0.027*[#   8]+
          +0.026*[#  12]+0.026*[#  16]+
    |psi|^2 = 0.990
==== e(   2) =   -13.58257 eV ==== 
     psi = 0.123*[#   1]+0.123*[#   5]+0.123*[#   9]+0.123*[#  13]+0.098*[#   3]+
          +0.098*[#   7]+0.098*[#  11]+0.098*[#  15]+0.026*[#   4]+0.026*[#   8]+
          +0.026*[#  12]+0.026*[#  16]+
    |psi|^2 = 0.992
==== e(   3) =   -12.65458 eV ==== 
     psi = 0.112*[#   1]+0.112*[#   5]+0.112*[#   9]+0.112*[#  13]+0.077*[#   3]+
          +0.077*[#   7]+0.076*[#  11]+0.076*[#  15]+0.060*[#   4]+0.060*[#   8]+
          +0.060*[#  12]+0.060*[#  16]+
    |psi|^2 = 0.992
==== e(   4) =   -12.59455 eV ==== 
     psi = 0.112*[#   1]+0.112*[#   5]+0.112*[#   9]+0.112*[#  13]+0.076*[#   3]+
          +0.076*[#   7]+0.076*[#  11]+0.076*[#  15]+0.060*[#   4]+0.060*[#   8]+
          +0.060*[#  12]+0.060*[#  16]+
    |psi|^2 = 0.994
==== e(   5) =   -10.89095 eV ==== 
     psi = 0.159*[#   4]+0.159*[#   8]+0.159*[#  12]+0.159*[#  16]+0.080*[#   3]+
          +0.080*[#   7]+0.080*[#  11]+0.080*[#  15]+0.005*[#   1]+0.005*[#   5]+
          +0.005*[#   9]+0.005*[#  13]+
    |psi|^2 = 0.980
==== e(   6) =   -10.84666 eV ==== 
     psi = 0.160*[#   4]+0.160*[#   8]+0.160*[#  12]+0.160*[#  16]+0.081*[#   3]+
          +0.081*[#   7]+0.081*[#  11]+0.081*[#  15]+0.005*[#   1]+0.005*[#   5]+
          +0.005*[#   9]+0.005*[#  13]+
    |psi|^2 = 0.984
==== e(   7) =    -1.37207 eV ==== 
     psi = 0.249*[#   2]+0.249*[#   6]+0.249*[#  10]+0.249*[#  14]+
    |psi|^2 = 0.995
==== e(   8) =    -0.85061 eV ==== 
     psi = 0.249*[#   2]+0.249*[#   6]+0.249*[#  10]+0.249*[#  14]+
    |psi|^2 = 0.995
==== e(   9) =    -0.12826 eV ==== 
     psi = 0.248*[#   2]+0.248*[#   6]+0.248*[#  10]+0.248*[#  14]+
    |psi|^2 = 0.991
==== e(  10) =     0.36496 eV ==== 
     psi = 0.248*[#   2]+0.248*[#   6]+0.248*[#  10]+0.248*[#  14]+
    |psi|^2 = 0.992
==== e(  11) =     9.38972 eV ==== 
     psi = 
    |psi|^2 = 0.002
==== e(  12) =    10.98283 eV ==== 
     psi = 
    |psi|^2 = 0.003

 k =  -0.3333333333  0.5532940080  0.0000000000
==== e(   1) =   -13.36150 eV ==== 
     psi = 0.123*[#   1]+0.123*[#   5]+0.123*[#   9]+0.123*[#  13]+0.072*[#   4]+
          +0.072*[#   8]+0.072*[#  12]+0.072*[#  16]+0.052*[#   3]+0.052*[#   7]+
          +0.052*[#  11]+0.052*[#  15]+
    |psi|^2 = 0.992
==== e(   2) =   -13.29689 eV ==== 
     psi = 0.124*[#   1]+0.124*[#   5]+0.124*[#   9]+0.124*[#  13]+0.072*[#   4]+
          +0.072*[#   8]+0.072*[#  12]+0.072*[#  16]+0.052*[#   3]+0.052*[#   7]+
          +0.052*[#  11]+0.052*[#  15]+
    |psi|^2 = 0.993
==== e(   3) =   -12.88175 eV ==== 
     psi = 0.114*[#   1]+0.114*[#   5]+0.114*[#   9]+0.114*[#  13]+0.081*[#   3]+
          +0.081*[#   7]+0.081*[#  11]+0.081*[#  15]+0.053*[#   4]+0.053*[#   8]+
          +0.053*[#  12]+0.053*[#  16]+
    |psi|^2 = 0.992
==== e(   4) =   -12.82039 eV ==== 
     psi = 0.114*[#   1]+0.114*[#   5]+0.114*[#   9]+0.114*[#  13]+0.081*[#   3]+
          +0.081*[#   7]+0.081*[#  11]+0.081*[#  15]+0.053*[#   4]+0.053*[#   8]+
          +0.053*[#  12]+0.053*[#  16]+
    |psi|^2 = 0.993
==== e(   5) =   -10.99301 eV ==== 
     psi = 0.125*[#   4]+0.125*[#   8]+0.125*[#  12]+0.125*[#  16]+0.117*[#   3]+
          +0.117*[#   7]+0.117*[#  11]+0.117*[#  15]+0.003*[#   1]+0.003*[#   5]+
          +0.003*[#   9]+0.003*[#  13]+
    |psi|^2 = 0.980
==== e(   6) =   -10.94840 eV ==== 
     psi = 0.125*[#   4]+0.125*[#   8]+0.125*[#  12]+0.125*[#  16]+0.118*[#   3]+
          +0.118*[#   7]+0.118*[#  11]+0.118*[#  15]+0.003*[#   1]+0.003*[#   5]+
          +0.003*[#   9]+0.003*[#  13]+
    |psi|^2 = 0.983
==== e(   7) =    -1.08356 eV ==== 
     psi = 0.249*[#   2]+0.249*[#   6]+0.249*[#  10]+0.249*[#  14]+
    |psi|^2 = 0.994
==== e(   8) =    -0.57213 eV ==== 
     psi = 0.249*[#   2]+0.249*[#   6]+0.249*[#  10]+0.249*[#  14]+
    |psi|^2 = 0.995
==== e(   9) =    -0.41095 eV ==== 
     psi = 0.248*[#   2]+0.248*[#   6]+0.248*[#  10]+0.248*[#  14]+
    |psi|^2 = 0.992
==== e(  10) =     0.08864 eV ==== 
     psi = 0.248*[#   2]+0.248*[#   6]+0.248*[#  10]+0.248*[#  14]+
    |psi|^2 = 0.992
==== e(  11) =     9.33622 eV ==== 
     psi = 
    |psi|^2 = 0.001
==== e(  12) =    10.99607 eV ==== 
     psi = 
    |psi|^2 = 0.003

 k =   0.6458333333  0.0120281306  0.0000000000
==== e(   1) =   -13.36167 eV ==== 
     psi = 0.123*[#   1]+0.123*[#   5]+0.123*[#   9]+0.123*[#  13]+0.081*[#   3]+
          +0.081*[#   7]+0.081*[#  11]+0.081*[#  15]+0.043*[#   4]+0.043*[#   8]+
          +0.043*[#  12]+0.043*[#  16]+
    |psi|^2 = 0.992
==== e(   2) =   -13.29706 eV ==== 
     psi = 0.124*[#   1]+0.124*[#   5]+0.124*[#   9]+0.124*[#  13]+0.081*[#   3]+
          +0.081*[#   7]+0.081*[#  11]+0.081*[#  15]+0.043*[#   4]+0.043*[#   8]+
          +0.043*[#  12]+0.043*[#  16]+
    |psi|^2 = 0.993
==== e(   3) =   -12.88148 eV ==== 
     psi = 0.114*[#   1]+0.114*[#   5]+0.114*[#   9]+0.114*[#  13]+0.075*[#   3]+
          +0.075*[#   7]+0.075*[#  11]+0.075*[#  15]+0.060*[#   4]+0.060*[#   8]+
          +0.060*[#  12]+0.060*[#  16]+
    |psi|^2 = 0.992
==== e(   4) =   -12.82013 eV ==== 
     psi = 0.114*[#   1]+0.114*[#   5]+0.114*[#   9]+0.114*[#  13]+0.075*[#   3]+
          +0.075*[#   7]+0.075*[#  11]+0.075*[#  15]+0.059*[#   4]+0.059*[#   8]+
          +0.060*[#  12]+0.060*[#  16]+
    |psi|^2 = 0.993
==== e(   5) =   -10.99311 eV ==== 
     psi = 0.145*[#   4]+0.145*[#   8]+0.145*[#  12]+0.145*[#  16]+0.097*[#   3]+
          +0.097*[#   7]+0.097*[#  11]+0.097*[#  15]+0.003*[#   1]+0.003*[#   5]+
          +0.003*[#   9]+0.003*[#  13]+
    |psi|^2 = 0.980
==== e(   6) =   -10.94850 eV ==== 
     psi = 0.146*[#   4]+0.146*[#   8]+0.146*[#  12]+0.146*[#  16]+0.097*[#   3]+
          +0.097*[#   7]+0.097*[#  11]+0.097*[#  15]+0.003*[#   1]+0.003*[#   5]+
          +0.003*[#   9]+0.003*[#  13]+
    |psi|^2 = 0.983
==== e(   7) =    -1.08384 eV ==== 
     psi = 0.249*[#   2]+0.249*[#   6]+0.249*[#  10]+0.249*[#  14]+
    |psi|^2 = 0.994
==== e(   8) =    -0.57242 eV ==== 
     psi = 0.249*[#   2]+0.249*[#   6]+0.249*[#  10]+0.249*[#  14]+
    |psi|^2 = 0.995
==== e(   9) =    -0.41065 eV ==== 
     psi = 0.248*[#   2]+0.248*[#   6]+0.248*[#  10]+0.248*[#  14]+
    |psi|^2 = 0.992
==== e(  10) =     0.08896 eV ==== 
     psi = 0.248*[#   2]+0.248*[#   6]+0.248*[#  10]+0.248*[#  14]+
    |psi|^2 = 0.992
==== e(  11) =     9.33619 eV ==== 
     psi = 
    |psi|^2 = 0.001
==== e(  12) =    10.99604 eV ==== 
     psi = 
    |psi|^2 = 0.003

Lowdin Charges: 

     Atom #   1: total charge =   3.9571, s =  0.9179, p =  3.0392, 
                 spin up      =   1.9785, s =  0.4590, 
                 spin up      =   1.9785, p =  1.5196, pz=  0.4945, px=  0.5126, py=  0.5126, 
                 spin down    =   1.9785, s =  0.4590, 
                 spin down    =   1.9785, p =  1.5196, pz=  0.4945, px=  0.5126, py=  0.5126, 
                 polarization =  -0.0000, s = -0.0000, p = -0.0000, 
     Atom #   2: total charge =   3.9571, s =  0.9179, p =  3.0392, 
                 spin up      =   1.9785, s =  0.4590, 
                 spin up      =   1.9785, p =  1.5196, pz=  0.4945, px=  0.5126, py=  0.5126, 
                 spin down    =   1.9785, s =  0.4590, 
                 spin down    =   1.9785, p =  1.5196, pz=  0.4945, px=  0.5126, py=  0.5126, 
                 polarization =   0.0000, s =  0.0000, p =  0.0000, 
     Atom #   3: total charge =   3.9571, s =  0.9179, p =  3.0392, 
                 spin up      =   1.9785, s =  0.4590, 
                 spin up      =   1.9785, p =  1.5196, pz=  0.4945, px=  0.5126, py=  0.5126, 
                 spin down    =   1.9785, s =  0.4590, 
                 spin down    =   1.9785, p =  1.5196, pz=  0.4945, px=  0.5126, py=  0.5126, 
                 polarization =  -0.0000, s = -0.0000, p = -0.0000, 
     Atom #   4: total charge =   3.9571, s =  0.9179, p =  3.0392, 
                 spin up      =   1.9785, s =  0.4590, 
                 spin up      =   1.9785, p =  1.5196, pz=  0.4945, px=  0.5126, py=  0.5126, 
                 spin down    =   1.9785, s =  0.4590, 
                 spin down    =   1.9785, p =  1.5196, pz=  0.4945, px=  0.5126, py=  0.5126, 
                 polarization =   0.0000, s =  0.0000, p =  0.0000, 
     Spilling Parameter:   0.0107
