
     Program PWSCF v.5.1 starts on 30Apr2020 at 17:34:31 

     This program is part of the open-source Quantum ESPRESSO suite
     for quantum simulation of materials; please cite
         "P. Giannozzi et al., J. Phys.:Condens. Matter 21 395502 (2009);
          URL http://www.quantum-espresso.org", 
     in publications or presentations arising from this work. More details at
     http://www.quantum-espresso.org/quote

     Parallel version (MPI), running on     1 processors
     Waiting for input...
     Reading input from standard input

     Current dimensions of program PWSCF are:
     Max number of different atomic species (ntypx) = 10
     Max number of k-points (npk) =  40000
     Max angular momentum in pseudopotentials (lmaxx) =  3

     Atomic positions and unit cell read from directory:
     ../tmp/gra.spin.save/


     IMPORTANT: XC functional enforced from input :
     Exchange-correlation      = PBE ( 1  4  3  4 0)
     Any further DFT definition will be discarded
     Please, verify this is what you really want

               file C.pbe-rrkjus.UPF: wavefunction(s)  2S 2P renormalized

     Subspace diagonalization in iterative solution of the eigenvalue problem:
     a serial algorithm will be used


     G-vector sticks info
     --------------------
     sticks:   dense  smooth     PW     G-vecs:    dense   smooth      PW
     Sum         595     241     85                96043    24369    4587

     Generating pointlists ...
     new r_m :   0.2381 (alat units)  1.1104 (a.u.) for type    1


     bravais-lattice index     =           12
     lattice parameter (alat)  =       4.6627  a.u.
     unit-cell volume          =     711.6007 (a.u.)^3
     number of atoms/cell      =            4
     number of atomic types    =            1
     number of electrons       =        16.00
     number of Kohn-Sham states=           12
     kinetic-energy cutoff     =      40.0000  Ry
     charge density cutoff     =     400.0000  Ry
     Exchange-correlation      = PBE ( 1  4  3  4 0)

     celldm(1)=   4.662710  celldm(2)=   1.000000  celldm(3)=   8.105698
     celldm(4)=  -0.500000  celldm(5)=   0.000000  celldm(6)=   0.000000

     crystal axes: (cart. coord. in units of alat)
               a(1) = (   1.000000   0.000000   0.000000 )  
               a(2) = (  -0.500000   0.866025   0.000000 )  
               a(3) = (   0.000000   0.000000   8.105698 )  

     reciprocal axes: (cart. coord. in units 2 pi/alat)
               b(1) = (  1.000000  0.577350 -0.000000 )  
               b(2) = (  0.000000  1.154701  0.000000 )  
               b(3) = (  0.000000 -0.000000  0.123370 )  


     PseudoPot. # 1 for C  read from file:
     ../pseudo/C.pbe-rrkjus.UPF
     MD5 check sum: 00fb224312de0c5b6853bd333518df6f
     Pseudo is Ultrasoft, Zval =  4.0
     Generated by new atomic code, or converted to UPF format
     Using radial grid of  627 points,  4 beta functions with: 
                l(1) =   0
                l(2) =   0
                l(3) =   1
                l(4) =   1
     Q(r) pseudized with 0 coefficients 


     atomic species   valence    mass     pseudopotential
        C              4.00    12.01100     C ( 1.00)

     Starting magnetic structure 
     atomic species   magnetization
        C           -0.500

      2 Sym. Ops. (no inversion) found
          (note:  6 additional sym.ops. were found but ignored
           their fractional translations are incommensurate with FFT grid)

                                    s                        frac. trans.

      isym =  1     identity                                     

 cryst.   s( 1) = (     1          0          0      )
                  (     0          1          0      )
                  (     0          0          1      )

 cart.    s( 1) = (  1.0000000  0.0000000  0.0000000 )
                  (  0.0000000  1.0000000  0.0000000 )
                  (  0.0000000  0.0000000  1.0000000 )


      isym =  2     inv. 180 deg rotation - cart. axis [1,0,0]   

 cryst.   s( 2) = (    -1          0          0      )
                  (     1          1          0      )
                  (     0          0          1      )

 cart.    s( 2) = ( -1.0000000  0.0000000  0.0000000 )
                  (  0.0000000  1.0000000  0.0000000 )
                  (  0.0000000  0.0000000  1.0000000 )


     point group C_s (m)    
     there are  2 classes
     the character table:

       E     s    
A'     1.00  1.00
A''    1.00 -1.00

     the symmetry operations in each class:
     E        1
     s        2

   Cartesian axes

     site n.     atom                  positions (alat units)
         1           C   tau(   1) = (   0.0000000   0.0000000   2.0264246  )
         2           C   tau(   2) = (   0.0000000   0.5773284   2.0264246  )
         3           C   tau(   3) = (   0.0000000   0.0000000   3.4530275  )
         4           C   tau(   4) = (   0.0000000   0.5773284   3.4530275  )

   Crystallographic axes

     site n.     atom                  positions (cryst. coord.)
         1           C   tau(   1) = (  0.0000000  0.0000000  0.2500000  )
         2           C   tau(   2) = (  0.3333207  0.6666414  0.2500000  )
         3           C   tau(   3) = (  0.0000000  0.0000000  0.4260000  )
         4           C   tau(   4) = (  0.3333207  0.6666414  0.4260000  )

     number of k points=  1202 (tetrahedron method)
                       cart. coord. in units 2pi/alat
        k(    1) = (   0.0000000   0.0000000   0.0000000), wk =   0.0004340
        k(    2) = (   0.0000000   0.0240563   0.0000000), wk =   0.0008681
        k(    3) = (   0.0000000   0.0481125   0.0000000), wk =   0.0008681
        k(    4) = (   0.0000000   0.0721688   0.0000000), wk =   0.0008681
        k(    5) = (   0.0000000   0.0962250   0.0000000), wk =   0.0008681
        k(    6) = (   0.0000000   0.1202813   0.0000000), wk =   0.0008681
        k(    7) = (   0.0000000   0.1443376   0.0000000), wk =   0.0008681
        k(    8) = (   0.0000000   0.1683938   0.0000000), wk =   0.0008681
        k(    9) = (   0.0000000   0.1924501   0.0000000), wk =   0.0008681
        k(   10) = (   0.0000000   0.2165064   0.0000000), wk =   0.0008681
        k(   11) = (   0.0000000   0.2405626   0.0000000), wk =   0.0008681
        k(   12) = (   0.0000000   0.2646189   0.0000000), wk =   0.0008681
        k(   13) = (   0.0000000   0.2886751   0.0000000), wk =   0.0008681
        k(   14) = (   0.0000000   0.3127314   0.0000000), wk =   0.0008681
        k(   15) = (   0.0000000   0.3367877   0.0000000), wk =   0.0008681
        k(   16) = (   0.0000000   0.3608439   0.0000000), wk =   0.0008681
        k(   17) = (   0.0000000   0.3849002   0.0000000), wk =   0.0008681
        k(   18) = (   0.0000000   0.4089564   0.0000000), wk =   0.0008681
        k(   19) = (   0.0000000   0.4330127   0.0000000), wk =   0.0008681
        k(   20) = (   0.0000000   0.4570690   0.0000000), wk =   0.0008681
        k(   21) = (   0.0000000   0.4811252   0.0000000), wk =   0.0008681
        k(   22) = (   0.0000000   0.5051815   0.0000000), wk =   0.0008681
        k(   23) = (   0.0000000   0.5292377   0.0000000), wk =   0.0008681
        k(   24) = (   0.0000000   0.5532940   0.0000000), wk =   0.0008681
        k(   25) = (   0.0000000  -0.5773503   0.0000000), wk =   0.0004340
        k(   26) = (   0.0208333   0.0360844   0.0000000), wk =   0.0017361
        k(   27) = (   0.0208333   0.0601407   0.0000000), wk =   0.0017361
        k(   28) = (   0.0208333   0.0841969   0.0000000), wk =   0.0017361
        k(   29) = (   0.0208333   0.1082532   0.0000000), wk =   0.0017361
        k(   30) = (   0.0208333   0.1323094   0.0000000), wk =   0.0017361
        k(   31) = (   0.0208333   0.1563657   0.0000000), wk =   0.0017361
        k(   32) = (   0.0208333   0.1804220   0.0000000), wk =   0.0017361
        k(   33) = (   0.0208333   0.2044782   0.0000000), wk =   0.0017361
        k(   34) = (   0.0208333   0.2285345   0.0000000), wk =   0.0017361
        k(   35) = (   0.0208333   0.2525907   0.0000000), wk =   0.0017361
        k(   36) = (   0.0208333   0.2766470   0.0000000), wk =   0.0017361
        k(   37) = (   0.0208333   0.3007033   0.0000000), wk =   0.0017361
        k(   38) = (   0.0208333   0.3247595   0.0000000), wk =   0.0017361
        k(   39) = (   0.0208333   0.3488158   0.0000000), wk =   0.0017361
        k(   40) = (   0.0208333   0.3728720   0.0000000), wk =   0.0017361
        k(   41) = (   0.0208333   0.3969283   0.0000000), wk =   0.0017361
        k(   42) = (   0.0208333   0.4209846   0.0000000), wk =   0.0017361
        k(   43) = (   0.0208333   0.4450408   0.0000000), wk =   0.0017361
        k(   44) = (   0.0208333   0.4690971   0.0000000), wk =   0.0017361
        k(   45) = (   0.0208333   0.4931534   0.0000000), wk =   0.0017361
        k(   46) = (   0.0208333   0.5172096   0.0000000), wk =   0.0017361
        k(   47) = (   0.0208333   0.5412659   0.0000000), wk =   0.0017361
        k(   48) = (   0.0208333   0.5653221   0.0000000), wk =   0.0017361
        k(   49) = (   0.0416667   0.0721688   0.0000000), wk =   0.0017361
        k(   50) = (   0.0416667   0.0962250   0.0000000), wk =   0.0017361
        k(   51) = (   0.0416667   0.1202813   0.0000000), wk =   0.0017361
        k(   52) = (   0.0416667   0.1443376   0.0000000), wk =   0.0017361
        k(   53) = (   0.0416667   0.1683938   0.0000000), wk =   0.0017361
        k(   54) = (   0.0416667   0.1924501   0.0000000), wk =   0.0017361
        k(   55) = (   0.0416667   0.2165064   0.0000000), wk =   0.0017361
        k(   56) = (   0.0416667   0.2405626   0.0000000), wk =   0.0017361
        k(   57) = (   0.0416667   0.2646189   0.0000000), wk =   0.0017361
        k(   58) = (   0.0416667   0.2886751   0.0000000), wk =   0.0017361
        k(   59) = (   0.0416667   0.3127314   0.0000000), wk =   0.0017361
        k(   60) = (   0.0416667   0.3367877   0.0000000), wk =   0.0017361
        k(   61) = (   0.0416667   0.3608439   0.0000000), wk =   0.0017361
        k(   62) = (   0.0416667   0.3849002   0.0000000), wk =   0.0017361
        k(   63) = (   0.0416667   0.4089564   0.0000000), wk =   0.0017361
        k(   64) = (   0.0416667   0.4330127   0.0000000), wk =   0.0017361
        k(   65) = (   0.0416667   0.4570690   0.0000000), wk =   0.0017361
        k(   66) = (   0.0416667   0.4811252   0.0000000), wk =   0.0017361
        k(   67) = (   0.0416667   0.5051815   0.0000000), wk =   0.0017361
        k(   68) = (   0.0416667   0.5292377   0.0000000), wk =   0.0017361
        k(   69) = (   0.0416667   0.5532940   0.0000000), wk =   0.0017361
        k(   70) = (   0.0416667   0.5773503   0.0000000), wk =   0.0008681
        k(   71) = (   0.0625000   0.1082532   0.0000000), wk =   0.0017361
        k(   72) = (   0.0625000   0.1323094   0.0000000), wk =   0.0017361
        k(   73) = (   0.0625000   0.1563657   0.0000000), wk =   0.0017361
        k(   74) = (   0.0625000   0.1804220   0.0000000), wk =   0.0017361
        k(   75) = (   0.0625000   0.2044782   0.0000000), wk =   0.0017361
        k(   76) = (   0.0625000   0.2285345   0.0000000), wk =   0.0017361
        k(   77) = (   0.0625000   0.2525907   0.0000000), wk =   0.0017361
        k(   78) = (   0.0625000   0.2766470   0.0000000), wk =   0.0017361
        k(   79) = (   0.0625000   0.3007033   0.0000000), wk =   0.0017361
        k(   80) = (   0.0625000   0.3247595   0.0000000), wk =   0.0017361
        k(   81) = (   0.0625000   0.3488158   0.0000000), wk =   0.0017361
        k(   82) = (   0.0625000   0.3728720   0.0000000), wk =   0.0017361
        k(   83) = (   0.0625000   0.3969283   0.0000000), wk =   0.0017361
        k(   84) = (   0.0625000   0.4209846   0.0000000), wk =   0.0017361
        k(   85) = (   0.0625000   0.4450408   0.0000000), wk =   0.0017361
        k(   86) = (   0.0625000   0.4690971   0.0000000), wk =   0.0017361
        k(   87) = (   0.0625000   0.4931534   0.0000000), wk =   0.0017361
        k(   88) = (   0.0625000   0.5172096   0.0000000), wk =   0.0017361
        k(   89) = (   0.0625000   0.5412659   0.0000000), wk =   0.0017361
        k(   90) = (   0.0625000   0.5653221   0.0000000), wk =   0.0017361
        k(   91) = (   0.0833333   0.1443376   0.0000000), wk =   0.0017361
        k(   92) = (   0.0833333   0.1683938   0.0000000), wk =   0.0017361
        k(   93) = (   0.0833333   0.1924501   0.0000000), wk =   0.0017361
        k(   94) = (   0.0833333   0.2165064   0.0000000), wk =   0.0017361
        k(   95) = (   0.0833333   0.2405626   0.0000000), wk =   0.0017361
        k(   96) = (   0.0833333   0.2646189   0.0000000), wk =   0.0017361
        k(   97) = (   0.0833333   0.2886751   0.0000000), wk =   0.0017361
        k(   98) = (   0.0833333   0.3127314   0.0000000), wk =   0.0017361
        k(   99) = (   0.0833333   0.3367877   0.0000000), wk =   0.0017361
        k(  100) = (   0.0833333   0.3608439   0.0000000), wk =   0.0017361
        k(  101) = (   0.0833333   0.3849002   0.0000000), wk =   0.0017361
        k(  102) = (   0.0833333   0.4089564   0.0000000), wk =   0.0017361
        k(  103) = (   0.0833333   0.4330127   0.0000000), wk =   0.0017361
        k(  104) = (   0.0833333   0.4570690   0.0000000), wk =   0.0017361
        k(  105) = (   0.0833333   0.4811252   0.0000000), wk =   0.0017361
        k(  106) = (   0.0833333   0.5051815   0.0000000), wk =   0.0017361
        k(  107) = (   0.0833333   0.5292377   0.0000000), wk =   0.0017361
        k(  108) = (   0.0833333   0.5532940   0.0000000), wk =   0.0017361
        k(  109) = (   0.0833333   0.5773503   0.0000000), wk =   0.0008681
        k(  110) = (   0.1041667   0.1804220   0.0000000), wk =   0.0017361
        k(  111) = (   0.1041667   0.2044782   0.0000000), wk =   0.0017361
        k(  112) = (   0.1041667   0.2285345   0.0000000), wk =   0.0017361
        k(  113) = (   0.1041667   0.2525907   0.0000000), wk =   0.0017361
        k(  114) = (   0.1041667   0.2766470   0.0000000), wk =   0.0017361
        k(  115) = (   0.1041667   0.3007033   0.0000000), wk =   0.0017361
        k(  116) = (   0.1041667   0.3247595   0.0000000), wk =   0.0017361
        k(  117) = (   0.1041667   0.3488158   0.0000000), wk =   0.0017361
        k(  118) = (   0.1041667   0.3728720   0.0000000), wk =   0.0017361
        k(  119) = (   0.1041667   0.3969283   0.0000000), wk =   0.0017361
        k(  120) = (   0.1041667   0.4209846   0.0000000), wk =   0.0017361
        k(  121) = (   0.1041667   0.4450408   0.0000000), wk =   0.0017361
        k(  122) = (   0.1041667   0.4690971   0.0000000), wk =   0.0017361
        k(  123) = (   0.1041667   0.4931534   0.0000000), wk =   0.0017361
        k(  124) = (   0.1041667   0.5172096   0.0000000), wk =   0.0017361
        k(  125) = (   0.1041667   0.5412659   0.0000000), wk =   0.0017361
        k(  126) = (   0.1041667   0.5653221   0.0000000), wk =   0.0017361
        k(  127) = (   0.1250000   0.2165064   0.0000000), wk =   0.0017361
        k(  128) = (   0.1250000   0.2405626   0.0000000), wk =   0.0017361
        k(  129) = (   0.1250000   0.2646189   0.0000000), wk =   0.0017361
        k(  130) = (   0.1250000   0.2886751   0.0000000), wk =   0.0017361
        k(  131) = (   0.1250000   0.3127314   0.0000000), wk =   0.0017361
        k(  132) = (   0.1250000   0.3367877   0.0000000), wk =   0.0017361
        k(  133) = (   0.1250000   0.3608439   0.0000000), wk =   0.0017361
        k(  134) = (   0.1250000   0.3849002   0.0000000), wk =   0.0017361
        k(  135) = (   0.1250000   0.4089564   0.0000000), wk =   0.0017361
        k(  136) = (   0.1250000   0.4330127   0.0000000), wk =   0.0017361
        k(  137) = (   0.1250000   0.4570690   0.0000000), wk =   0.0017361
        k(  138) = (   0.1250000   0.4811252   0.0000000), wk =   0.0017361
        k(  139) = (   0.1250000   0.5051815   0.0000000), wk =   0.0017361
        k(  140) = (   0.1250000   0.5292377   0.0000000), wk =   0.0017361
        k(  141) = (   0.1250000   0.5532940   0.0000000), wk =   0.0017361
        k(  142) = (   0.1250000   0.5773503   0.0000000), wk =   0.0008681
        k(  143) = (   0.1458333   0.2525907   0.0000000), wk =   0.0017361
        k(  144) = (   0.1458333   0.2766470   0.0000000), wk =   0.0017361
        k(  145) = (   0.1458333   0.3007033   0.0000000), wk =   0.0017361
        k(  146) = (   0.1458333   0.3247595   0.0000000), wk =   0.0017361
        k(  147) = (   0.1458333   0.3488158   0.0000000), wk =   0.0017361
        k(  148) = (   0.1458333   0.3728720   0.0000000), wk =   0.0017361
        k(  149) = (   0.1458333   0.3969283   0.0000000), wk =   0.0017361
        k(  150) = (   0.1458333   0.4209846   0.0000000), wk =   0.0017361
        k(  151) = (   0.1458333   0.4450408   0.0000000), wk =   0.0017361
        k(  152) = (   0.1458333   0.4690971   0.0000000), wk =   0.0017361
        k(  153) = (   0.1458333   0.4931534   0.0000000), wk =   0.0017361
        k(  154) = (   0.1458333   0.5172096   0.0000000), wk =   0.0017361
        k(  155) = (   0.1458333   0.5412659   0.0000000), wk =   0.0017361
        k(  156) = (   0.1458333   0.5653221   0.0000000), wk =   0.0017361
        k(  157) = (   0.1666667   0.2886751   0.0000000), wk =   0.0017361
        k(  158) = (   0.1666667   0.3127314   0.0000000), wk =   0.0017361
        k(  159) = (   0.1666667   0.3367877   0.0000000), wk =   0.0017361
        k(  160) = (   0.1666667   0.3608439   0.0000000), wk =   0.0017361
        k(  161) = (   0.1666667   0.3849002   0.0000000), wk =   0.0017361
        k(  162) = (   0.1666667   0.4089564   0.0000000), wk =   0.0017361
        k(  163) = (   0.1666667   0.4330127   0.0000000), wk =   0.0017361
        k(  164) = (   0.1666667   0.4570690   0.0000000), wk =   0.0017361
        k(  165) = (   0.1666667   0.4811252   0.0000000), wk =   0.0017361
        k(  166) = (   0.1666667   0.5051815   0.0000000), wk =   0.0017361
        k(  167) = (   0.1666667   0.5292377   0.0000000), wk =   0.0017361
        k(  168) = (   0.1666667   0.5532940   0.0000000), wk =   0.0017361
        k(  169) = (   0.1666667   0.5773503   0.0000000), wk =   0.0008681
        k(  170) = (   0.1875000   0.3247595   0.0000000), wk =   0.0017361
        k(  171) = (   0.1875000   0.3488158   0.0000000), wk =   0.0017361
        k(  172) = (   0.1875000   0.3728720   0.0000000), wk =   0.0017361
        k(  173) = (   0.1875000   0.3969283   0.0000000), wk =   0.0017361
        k(  174) = (   0.1875000   0.4209846   0.0000000), wk =   0.0017361
        k(  175) = (   0.1875000   0.4450408   0.0000000), wk =   0.0017361
        k(  176) = (   0.1875000   0.4690971   0.0000000), wk =   0.0017361
        k(  177) = (   0.1875000   0.4931534   0.0000000), wk =   0.0017361
        k(  178) = (   0.1875000   0.5172096   0.0000000), wk =   0.0017361
        k(  179) = (   0.1875000   0.5412659   0.0000000), wk =   0.0017361
        k(  180) = (   0.1875000   0.5653221   0.0000000), wk =   0.0017361
        k(  181) = (   0.2083333   0.3608439   0.0000000), wk =   0.0017361
        k(  182) = (   0.2083333   0.3849002   0.0000000), wk =   0.0017361
        k(  183) = (   0.2083333   0.4089564   0.0000000), wk =   0.0017361
        k(  184) = (   0.2083333   0.4330127   0.0000000), wk =   0.0017361
        k(  185) = (   0.2083333   0.4570690   0.0000000), wk =   0.0017361
        k(  186) = (   0.2083333   0.4811252   0.0000000), wk =   0.0017361
        k(  187) = (   0.2083333   0.5051815   0.0000000), wk =   0.0017361
        k(  188) = (   0.2083333   0.5292377   0.0000000), wk =   0.0017361
        k(  189) = (   0.2083333   0.5532940   0.0000000), wk =   0.0017361
        k(  190) = (   0.2083333   0.5773503   0.0000000), wk =   0.0008681
        k(  191) = (   0.2291667   0.3969283   0.0000000), wk =   0.0017361
        k(  192) = (   0.2291667   0.4209846   0.0000000), wk =   0.0017361
        k(  193) = (   0.2291667   0.4450408   0.0000000), wk =   0.0017361
        k(  194) = (   0.2291667   0.4690971   0.0000000), wk =   0.0017361
        k(  195) = (   0.2291667   0.4931534   0.0000000), wk =   0.0017361
        k(  196) = (   0.2291667   0.5172096   0.0000000), wk =   0.0017361
        k(  197) = (   0.2291667   0.5412659   0.0000000), wk =   0.0017361
        k(  198) = (   0.2291667   0.5653221   0.0000000), wk =   0.0017361
        k(  199) = (   0.2500000   0.4330127   0.0000000), wk =   0.0017361
        k(  200) = (   0.2500000   0.4570690   0.0000000), wk =   0.0017361
        k(  201) = (   0.2500000   0.4811252   0.0000000), wk =   0.0017361
        k(  202) = (   0.2500000   0.5051815   0.0000000), wk =   0.0017361
        k(  203) = (   0.2500000   0.5292377   0.0000000), wk =   0.0017361
        k(  204) = (   0.2500000   0.5532940   0.0000000), wk =   0.0017361
        k(  205) = (   0.2500000   0.5773503   0.0000000), wk =   0.0008681
        k(  206) = (   0.2708333   0.4690971   0.0000000), wk =   0.0017361
        k(  207) = (   0.2708333   0.4931534   0.0000000), wk =   0.0017361
        k(  208) = (   0.2708333   0.5172096   0.0000000), wk =   0.0017361
        k(  209) = (   0.2708333   0.5412659   0.0000000), wk =   0.0017361
        k(  210) = (   0.2708333   0.5653221   0.0000000), wk =   0.0017361
        k(  211) = (   0.2916667   0.5051815   0.0000000), wk =   0.0017361
        k(  212) = (   0.2916667   0.5292377   0.0000000), wk =   0.0017361
        k(  213) = (   0.2916667   0.5532940   0.0000000), wk =   0.0017361
        k(  214) = (   0.2916667   0.5773503   0.0000000), wk =   0.0008681
        k(  215) = (   0.3125000   0.5412659   0.0000000), wk =   0.0017361
        k(  216) = (   0.3125000   0.5653221   0.0000000), wk =   0.0017361
        k(  217) = (   0.3333333   0.5773503   0.0000000), wk =   0.0008681
        k(  218) = (  -0.0208333   0.0120281   0.0000000), wk =   0.0017361
        k(  219) = (  -0.0416667   0.0240563   0.0000000), wk =   0.0017361
        k(  220) = (  -0.0625000   0.0360844   0.0000000), wk =   0.0017361
        k(  221) = (  -0.0833333   0.0481125   0.0000000), wk =   0.0017361
        k(  222) = (  -0.1041667   0.0601407   0.0000000), wk =   0.0017361
        k(  223) = (  -0.1250000   0.0721688   0.0000000), wk =   0.0017361
        k(  224) = (  -0.1458333   0.0841969   0.0000000), wk =   0.0017361
        k(  225) = (  -0.1666667   0.0962250   0.0000000), wk =   0.0017361
        k(  226) = (  -0.1875000   0.1082532   0.0000000), wk =   0.0017361
        k(  227) = (  -0.2083333   0.1202813   0.0000000), wk =   0.0017361
        k(  228) = (  -0.2291667   0.1323094   0.0000000), wk =   0.0017361
        k(  229) = (  -0.2500000   0.1443376   0.0000000), wk =   0.0017361
        k(  230) = (  -0.2708333   0.1563657   0.0000000), wk =   0.0017361
        k(  231) = (  -0.2916667   0.1683938   0.0000000), wk =   0.0017361
        k(  232) = (  -0.3125000   0.1804220   0.0000000), wk =   0.0017361
        k(  233) = (  -0.3333333   0.1924501   0.0000000), wk =   0.0017361
        k(  234) = (  -0.3541667   0.2044782   0.0000000), wk =   0.0017361
        k(  235) = (  -0.3750000   0.2165064   0.0000000), wk =   0.0017361
        k(  236) = (  -0.3958333   0.2285345   0.0000000), wk =   0.0017361
        k(  237) = (  -0.4166667   0.2405626   0.0000000), wk =   0.0017361
        k(  238) = (  -0.4375000   0.2525907   0.0000000), wk =   0.0017361
        k(  239) = (  -0.4583333   0.2646189   0.0000000), wk =   0.0017361
        k(  240) = (  -0.4791667   0.2766470   0.0000000), wk =   0.0017361
        k(  241) = (   0.5000000  -0.2886751   0.0000000), wk =   0.0008681
        k(  242) = (   0.0416667  -0.0000000   0.0000000), wk =   0.0008681
        k(  243) = (  -0.0416667   0.0481125   0.0000000), wk =   0.0017361
        k(  244) = (   0.0625000   0.0120281   0.0000000), wk =   0.0017361
        k(  245) = (  -0.0625000   0.0601407   0.0000000), wk =   0.0017361
        k(  246) = (   0.0833333   0.0240563   0.0000000), wk =   0.0017361
        k(  247) = (  -0.0833333   0.0721688   0.0000000), wk =   0.0017361
        k(  248) = (   0.1041667   0.0360844   0.0000000), wk =   0.0017361
        k(  249) = (  -0.1041667   0.0841969   0.0000000), wk =   0.0017361
        k(  250) = (   0.1250000   0.0481125   0.0000000), wk =   0.0017361
        k(  251) = (  -0.1250000   0.0962250   0.0000000), wk =   0.0017361
        k(  252) = (   0.1458333   0.0601407   0.0000000), wk =   0.0017361
        k(  253) = (  -0.1458333   0.1082532   0.0000000), wk =   0.0017361
        k(  254) = (   0.1666667   0.0721688   0.0000000), wk =   0.0017361
        k(  255) = (  -0.1666667   0.1202813   0.0000000), wk =   0.0017361
        k(  256) = (   0.1875000   0.0841969   0.0000000), wk =   0.0017361
        k(  257) = (  -0.1875000   0.1323094   0.0000000), wk =   0.0017361
        k(  258) = (   0.2083333   0.0962250   0.0000000), wk =   0.0017361
        k(  259) = (  -0.2083333   0.1443376   0.0000000), wk =   0.0017361
        k(  260) = (   0.2291667   0.1082532   0.0000000), wk =   0.0017361
        k(  261) = (  -0.2291667   0.1563657   0.0000000), wk =   0.0017361
        k(  262) = (   0.2500000   0.1202813   0.0000000), wk =   0.0017361
        k(  263) = (  -0.2500000   0.1683938   0.0000000), wk =   0.0017361
        k(  264) = (   0.2708333   0.1323094   0.0000000), wk =   0.0017361
        k(  265) = (  -0.2708333   0.1804220   0.0000000), wk =   0.0017361
        k(  266) = (   0.2916667   0.1443376   0.0000000), wk =   0.0017361
        k(  267) = (  -0.2916667   0.1924501   0.0000000), wk =   0.0017361
        k(  268) = (   0.3125000   0.1563657   0.0000000), wk =   0.0017361
        k(  269) = (  -0.3125000   0.2044782   0.0000000), wk =   0.0017361
        k(  270) = (   0.3333333   0.1683938   0.0000000), wk =   0.0017361
        k(  271) = (  -0.3333333   0.2165064   0.0000000), wk =   0.0017361
        k(  272) = (   0.3541667   0.1804220   0.0000000), wk =   0.0017361
        k(  273) = (  -0.3541667   0.2285345   0.0000000), wk =   0.0017361
        k(  274) = (   0.3750000   0.1924501   0.0000000), wk =   0.0017361
        k(  275) = (  -0.3750000   0.2405626   0.0000000), wk =   0.0017361
        k(  276) = (   0.3958333   0.2044782   0.0000000), wk =   0.0017361
        k(  277) = (  -0.3958333   0.2525907   0.0000000), wk =   0.0017361
        k(  278) = (   0.4166667   0.2165064   0.0000000), wk =   0.0017361
        k(  279) = (  -0.4166667   0.2646189   0.0000000), wk =   0.0017361
        k(  280) = (   0.4375000   0.2285345   0.0000000), wk =   0.0017361
        k(  281) = (  -0.4375000   0.2766470   0.0000000), wk =   0.0017361
        k(  282) = (   0.4583333   0.2405626   0.0000000), wk =   0.0017361
        k(  283) = (  -0.4583333   0.2886751   0.0000000), wk =   0.0017361
        k(  284) = (   0.4791667   0.2525907   0.0000000), wk =   0.0017361
        k(  285) = (  -0.4791667   0.3007033   0.0000000), wk =   0.0017361
        k(  286) = (   0.5000000   0.2646189   0.0000000), wk =   0.0017361
        k(  287) = (   0.0833333  -0.0000000   0.0000000), wk =   0.0008681
        k(  288) = (  -0.0625000   0.0841969   0.0000000), wk =   0.0017361
        k(  289) = (   0.1041667   0.0120281   0.0000000), wk =   0.0017361
        k(  290) = (  -0.0833333   0.0962250   0.0000000), wk =   0.0017361
        k(  291) = (   0.1250000   0.0240563   0.0000000), wk =   0.0017361
        k(  292) = (  -0.1041667   0.1082532   0.0000000), wk =   0.0017361
        k(  293) = (   0.1458333   0.0360844   0.0000000), wk =   0.0017361
        k(  294) = (  -0.1250000   0.1202813   0.0000000), wk =   0.0017361
        k(  295) = (   0.1666667   0.0481125   0.0000000), wk =   0.0017361
        k(  296) = (  -0.1458333   0.1323094   0.0000000), wk =   0.0017361
        k(  297) = (   0.1875000   0.0601407   0.0000000), wk =   0.0017361
        k(  298) = (  -0.1666667   0.1443376   0.0000000), wk =   0.0017361
        k(  299) = (   0.2083333   0.0721688   0.0000000), wk =   0.0017361
        k(  300) = (  -0.1875000   0.1563657   0.0000000), wk =   0.0017361
        k(  301) = (   0.2291667   0.0841969   0.0000000), wk =   0.0017361
        k(  302) = (  -0.2083333   0.1683938   0.0000000), wk =   0.0017361
        k(  303) = (   0.2500000   0.0962250   0.0000000), wk =   0.0017361
        k(  304) = (  -0.2291667   0.1804220   0.0000000), wk =   0.0017361
        k(  305) = (   0.2708333   0.1082532   0.0000000), wk =   0.0017361
        k(  306) = (  -0.2500000   0.1924501   0.0000000), wk =   0.0017361
        k(  307) = (   0.2916667   0.1202813   0.0000000), wk =   0.0017361
        k(  308) = (  -0.2708333   0.2044782   0.0000000), wk =   0.0017361
        k(  309) = (   0.3125000   0.1323094   0.0000000), wk =   0.0017361
        k(  310) = (  -0.2916667   0.2165064   0.0000000), wk =   0.0017361
        k(  311) = (   0.3333333   0.1443376   0.0000000), wk =   0.0017361
        k(  312) = (  -0.3125000   0.2285345   0.0000000), wk =   0.0017361
        k(  313) = (   0.3541667   0.1563657   0.0000000), wk =   0.0017361
        k(  314) = (  -0.3333333   0.2405626   0.0000000), wk =   0.0017361
        k(  315) = (   0.3750000   0.1683938   0.0000000), wk =   0.0017361
        k(  316) = (  -0.3541667   0.2525907   0.0000000), wk =   0.0017361
        k(  317) = (   0.3958333   0.1804220   0.0000000), wk =   0.0017361
        k(  318) = (  -0.3750000   0.2646189   0.0000000), wk =   0.0017361
        k(  319) = (   0.4166667   0.1924501   0.0000000), wk =   0.0017361
        k(  320) = (  -0.3958333   0.2766470   0.0000000), wk =   0.0017361
        k(  321) = (   0.4375000   0.2044782   0.0000000), wk =   0.0017361
        k(  322) = (  -0.4166667   0.2886751   0.0000000), wk =   0.0017361
        k(  323) = (   0.4583333   0.2165064   0.0000000), wk =   0.0017361
        k(  324) = (  -0.4375000   0.3007033   0.0000000), wk =   0.0017361
        k(  325) = (   0.4791667   0.2285345   0.0000000), wk =   0.0017361
        k(  326) = (  -0.4583333   0.3127314   0.0000000), wk =   0.0017361
        k(  327) = (   0.5000000   0.2405626   0.0000000), wk =   0.0017361
        k(  328) = (  -0.4791667   0.3247595   0.0000000), wk =   0.0017361
        k(  329) = (   0.1250000  -0.0000000   0.0000000), wk =   0.0008681
        k(  330) = (  -0.0833333   0.1202813   0.0000000), wk =   0.0017361
        k(  331) = (   0.1458333   0.0120281   0.0000000), wk =   0.0017361
        k(  332) = (  -0.1041667   0.1323094   0.0000000), wk =   0.0017361
        k(  333) = (   0.1666667   0.0240563   0.0000000), wk =   0.0017361
        k(  334) = (  -0.1250000   0.1443376   0.0000000), wk =   0.0017361
        k(  335) = (   0.1875000   0.0360844   0.0000000), wk =   0.0017361
        k(  336) = (  -0.1458333   0.1563657   0.0000000), wk =   0.0017361
        k(  337) = (   0.2083333   0.0481125   0.0000000), wk =   0.0017361
        k(  338) = (  -0.1666667   0.1683938   0.0000000), wk =   0.0017361
        k(  339) = (   0.2291667   0.0601407   0.0000000), wk =   0.0017361
        k(  340) = (  -0.1875000   0.1804220   0.0000000), wk =   0.0017361
        k(  341) = (   0.2500000   0.0721688   0.0000000), wk =   0.0017361
        k(  342) = (  -0.2083333   0.1924501   0.0000000), wk =   0.0017361
        k(  343) = (   0.2708333   0.0841969   0.0000000), wk =   0.0017361
        k(  344) = (  -0.2291667   0.2044782   0.0000000), wk =   0.0017361
        k(  345) = (   0.2916667   0.0962250   0.0000000), wk =   0.0017361
        k(  346) = (  -0.2500000   0.2165064   0.0000000), wk =   0.0017361
        k(  347) = (   0.3125000   0.1082532   0.0000000), wk =   0.0017361
        k(  348) = (  -0.2708333   0.2285345   0.0000000), wk =   0.0017361
        k(  349) = (   0.3333333   0.1202813   0.0000000), wk =   0.0017361
        k(  350) = (  -0.2916667   0.2405626   0.0000000), wk =   0.0017361
        k(  351) = (   0.3541667   0.1323094   0.0000000), wk =   0.0017361
        k(  352) = (  -0.3125000   0.2525907   0.0000000), wk =   0.0017361
        k(  353) = (   0.3750000   0.1443376   0.0000000), wk =   0.0017361
        k(  354) = (  -0.3333333   0.2646189   0.0000000), wk =   0.0017361
        k(  355) = (   0.3958333   0.1563657   0.0000000), wk =   0.0017361
        k(  356) = (  -0.3541667   0.2766470   0.0000000), wk =   0.0017361
        k(  357) = (   0.4166667   0.1683938   0.0000000), wk =   0.0017361
        k(  358) = (  -0.3750000   0.2886751   0.0000000), wk =   0.0017361
        k(  359) = (   0.4375000   0.1804220   0.0000000), wk =   0.0017361
        k(  360) = (  -0.3958333   0.3007033   0.0000000), wk =   0.0017361
        k(  361) = (   0.4583333   0.1924501   0.0000000), wk =   0.0017361
        k(  362) = (  -0.4166667   0.3127314   0.0000000), wk =   0.0017361
        k(  363) = (   0.4791667   0.2044782   0.0000000), wk =   0.0017361
        k(  364) = (  -0.4375000   0.3247595   0.0000000), wk =   0.0017361
        k(  365) = (   0.5000000   0.2165064   0.0000000), wk =   0.0017361
        k(  366) = (  -0.4583333   0.3367877   0.0000000), wk =   0.0017361
        k(  367) = (   0.5208333   0.2285345   0.0000000), wk =   0.0017361
        k(  368) = (   0.1666667  -0.0000000   0.0000000), wk =   0.0008681
        k(  369) = (  -0.1041667   0.1563657   0.0000000), wk =   0.0017361
        k(  370) = (   0.1875000   0.0120281   0.0000000), wk =   0.0017361
        k(  371) = (  -0.1250000   0.1683938   0.0000000), wk =   0.0017361
        k(  372) = (   0.2083333   0.0240563   0.0000000), wk =   0.0017361
        k(  373) = (  -0.1458333   0.1804220   0.0000000), wk =   0.0017361
        k(  374) = (   0.2291667   0.0360844   0.0000000), wk =   0.0017361
        k(  375) = (  -0.1666667   0.1924501   0.0000000), wk =   0.0017361
        k(  376) = (   0.2500000   0.0481125   0.0000000), wk =   0.0017361
        k(  377) = (  -0.1875000   0.2044782   0.0000000), wk =   0.0017361
        k(  378) = (   0.2708333   0.0601407   0.0000000), wk =   0.0017361
        k(  379) = (  -0.2083333   0.2165064   0.0000000), wk =   0.0017361
        k(  380) = (   0.2916667   0.0721688   0.0000000), wk =   0.0017361
        k(  381) = (  -0.2291667   0.2285345   0.0000000), wk =   0.0017361
        k(  382) = (   0.3125000   0.0841969   0.0000000), wk =   0.0017361
        k(  383) = (  -0.2500000   0.2405626   0.0000000), wk =   0.0017361
        k(  384) = (   0.3333333   0.0962250   0.0000000), wk =   0.0017361
        k(  385) = (  -0.2708333   0.2525907   0.0000000), wk =   0.0017361
        k(  386) = (   0.3541667   0.1082532   0.0000000), wk =   0.0017361
        k(  387) = (  -0.2916667   0.2646189   0.0000000), wk =   0.0017361
        k(  388) = (   0.3750000   0.1202813   0.0000000), wk =   0.0017361
        k(  389) = (  -0.3125000   0.2766470   0.0000000), wk =   0.0017361
        k(  390) = (   0.3958333   0.1323094   0.0000000), wk =   0.0017361
        k(  391) = (  -0.3333333   0.2886751   0.0000000), wk =   0.0017361
        k(  392) = (   0.4166667   0.1443376   0.0000000), wk =   0.0017361
        k(  393) = (  -0.3541667   0.3007033   0.0000000), wk =   0.0017361
        k(  394) = (   0.4375000   0.1563657   0.0000000), wk =   0.0017361
        k(  395) = (  -0.3750000   0.3127314   0.0000000), wk =   0.0017361
        k(  396) = (   0.4583333   0.1683938   0.0000000), wk =   0.0017361
        k(  397) = (  -0.3958333   0.3247595   0.0000000), wk =   0.0017361
        k(  398) = (   0.4791667   0.1804220   0.0000000), wk =   0.0017361
        k(  399) = (  -0.4166667   0.3367877   0.0000000), wk =   0.0017361
        k(  400) = (   0.5000000   0.1924501   0.0000000), wk =   0.0017361
        k(  401) = (  -0.4375000   0.3488158   0.0000000), wk =   0.0017361
        k(  402) = (   0.5208333   0.2044782   0.0000000), wk =   0.0017361
        k(  403) = (  -0.4583333   0.3608439   0.0000000), wk =   0.0017361
        k(  404) = (   0.2083333  -0.0000000   0.0000000), wk =   0.0008681
        k(  405) = (  -0.1250000   0.1924501   0.0000000), wk =   0.0017361
        k(  406) = (   0.2291667   0.0120281   0.0000000), wk =   0.0017361
        k(  407) = (  -0.1458333   0.2044782   0.0000000), wk =   0.0017361
        k(  408) = (   0.2500000   0.0240563   0.0000000), wk =   0.0017361
        k(  409) = (  -0.1666667   0.2165064   0.0000000), wk =   0.0017361
        k(  410) = (   0.2708333   0.0360844   0.0000000), wk =   0.0017361
        k(  411) = (  -0.1875000   0.2285345   0.0000000), wk =   0.0017361
        k(  412) = (   0.2916667   0.0481125   0.0000000), wk =   0.0017361
        k(  413) = (  -0.2083333   0.2405626   0.0000000), wk =   0.0017361
        k(  414) = (   0.3125000   0.0601407   0.0000000), wk =   0.0017361
        k(  415) = (  -0.2291667   0.2525907   0.0000000), wk =   0.0017361
        k(  416) = (   0.3333333   0.0721688   0.0000000), wk =   0.0017361
        k(  417) = (  -0.2500000   0.2646189   0.0000000), wk =   0.0017361
        k(  418) = (   0.3541667   0.0841969   0.0000000), wk =   0.0017361
        k(  419) = (  -0.2708333   0.2766470   0.0000000), wk =   0.0017361
        k(  420) = (   0.3750000   0.0962250   0.0000000), wk =   0.0017361
        k(  421) = (  -0.2916667   0.2886751   0.0000000), wk =   0.0017361
        k(  422) = (   0.3958333   0.1082532   0.0000000), wk =   0.0017361
        k(  423) = (  -0.3125000   0.3007033   0.0000000), wk =   0.0017361
        k(  424) = (   0.4166667   0.1202813   0.0000000), wk =   0.0017361
        k(  425) = (  -0.3333333   0.3127314   0.0000000), wk =   0.0017361
        k(  426) = (   0.4375000   0.1323094   0.0000000), wk =   0.0017361
        k(  427) = (  -0.3541667   0.3247595   0.0000000), wk =   0.0017361
        k(  428) = (   0.4583333   0.1443376   0.0000000), wk =   0.0017361
        k(  429) = (  -0.3750000   0.3367877   0.0000000), wk =   0.0017361
        k(  430) = (   0.4791667   0.1563657   0.0000000), wk =   0.0017361
        k(  431) = (  -0.3958333   0.3488158   0.0000000), wk =   0.0017361
        k(  432) = (   0.5000000   0.1683938   0.0000000), wk =   0.0017361
        k(  433) = (  -0.4166667   0.3608439   0.0000000), wk =   0.0017361
        k(  434) = (   0.5208333   0.1804220   0.0000000), wk =   0.0017361
        k(  435) = (  -0.4375000   0.3728720   0.0000000), wk =   0.0017361
        k(  436) = (   0.5416667   0.1924501   0.0000000), wk =   0.0017361
        k(  437) = (   0.2500000  -0.0000000   0.0000000), wk =   0.0008681
        k(  438) = (  -0.1458333   0.2285345   0.0000000), wk =   0.0017361
        k(  439) = (   0.2708333   0.0120281   0.0000000), wk =   0.0017361
        k(  440) = (  -0.1666667   0.2405626   0.0000000), wk =   0.0017361
        k(  441) = (   0.2916667   0.0240563   0.0000000), wk =   0.0017361
        k(  442) = (  -0.1875000   0.2525907   0.0000000), wk =   0.0017361
        k(  443) = (   0.3125000   0.0360844   0.0000000), wk =   0.0017361
        k(  444) = (  -0.2083333   0.2646189   0.0000000), wk =   0.0017361
        k(  445) = (   0.3333333   0.0481125   0.0000000), wk =   0.0017361
        k(  446) = (  -0.2291667   0.2766470   0.0000000), wk =   0.0017361
        k(  447) = (   0.3541667   0.0601407   0.0000000), wk =   0.0017361
        k(  448) = (  -0.2500000   0.2886751   0.0000000), wk =   0.0017361
        k(  449) = (   0.3750000   0.0721688   0.0000000), wk =   0.0017361
        k(  450) = (  -0.2708333   0.3007033   0.0000000), wk =   0.0017361
        k(  451) = (   0.3958333   0.0841969   0.0000000), wk =   0.0017361
        k(  452) = (  -0.2916667   0.3127314   0.0000000), wk =   0.0017361
        k(  453) = (   0.4166667   0.0962250   0.0000000), wk =   0.0017361
        k(  454) = (  -0.3125000   0.3247595   0.0000000), wk =   0.0017361
        k(  455) = (   0.4375000   0.1082532   0.0000000), wk =   0.0017361
        k(  456) = (  -0.3333333   0.3367877   0.0000000), wk =   0.0017361
        k(  457) = (   0.4583333   0.1202813   0.0000000), wk =   0.0017361
        k(  458) = (  -0.3541667   0.3488158   0.0000000), wk =   0.0017361
        k(  459) = (   0.4791667   0.1323094   0.0000000), wk =   0.0017361
        k(  460) = (  -0.3750000   0.3608439   0.0000000), wk =   0.0017361
        k(  461) = (   0.5000000   0.1443376   0.0000000), wk =   0.0017361
        k(  462) = (  -0.3958333   0.3728720   0.0000000), wk =   0.0017361
        k(  463) = (   0.5208333   0.1563657   0.0000000), wk =   0.0017361
        k(  464) = (  -0.4166667   0.3849002   0.0000000), wk =   0.0017361
        k(  465) = (   0.5416667   0.1683938   0.0000000), wk =   0.0017361
        k(  466) = (  -0.4375000   0.3969283   0.0000000), wk =   0.0017361
        k(  467) = (   0.2916667  -0.0000000   0.0000000), wk =   0.0008681
        k(  468) = (  -0.1666667   0.2646189   0.0000000), wk =   0.0017361
        k(  469) = (   0.3125000   0.0120281   0.0000000), wk =   0.0017361
        k(  470) = (  -0.1875000   0.2766470   0.0000000), wk =   0.0017361
        k(  471) = (   0.3333333   0.0240563   0.0000000), wk =   0.0017361
        k(  472) = (  -0.2083333   0.2886751   0.0000000), wk =   0.0017361
        k(  473) = (   0.3541667   0.0360844   0.0000000), wk =   0.0017361
        k(  474) = (  -0.2291667   0.3007033   0.0000000), wk =   0.0017361
        k(  475) = (   0.3750000   0.0481125   0.0000000), wk =   0.0017361
        k(  476) = (  -0.2500000   0.3127314   0.0000000), wk =   0.0017361
        k(  477) = (   0.3958333   0.0601407   0.0000000), wk =   0.0017361
        k(  478) = (  -0.2708333   0.3247595   0.0000000), wk =   0.0017361
        k(  479) = (   0.4166667   0.0721688   0.0000000), wk =   0.0017361
        k(  480) = (  -0.2916667   0.3367877   0.0000000), wk =   0.0017361
        k(  481) = (   0.4375000   0.0841969   0.0000000), wk =   0.0017361
        k(  482) = (  -0.3125000   0.3488158   0.0000000), wk =   0.0017361
        k(  483) = (   0.4583333   0.0962250   0.0000000), wk =   0.0017361
        k(  484) = (  -0.3333333   0.3608439   0.0000000), wk =   0.0017361
        k(  485) = (   0.4791667   0.1082532   0.0000000), wk =   0.0017361
        k(  486) = (  -0.3541667   0.3728720   0.0000000), wk =   0.0017361
        k(  487) = (   0.5000000   0.1202813   0.0000000), wk =   0.0017361
        k(  488) = (  -0.3750000   0.3849002   0.0000000), wk =   0.0017361
        k(  489) = (   0.5208333   0.1323094   0.0000000), wk =   0.0017361
        k(  490) = (  -0.3958333   0.3969283   0.0000000), wk =   0.0017361
        k(  491) = (   0.5416667   0.1443376   0.0000000), wk =   0.0017361
        k(  492) = (  -0.4166667   0.4089564   0.0000000), wk =   0.0017361
        k(  493) = (   0.5625000   0.1563657   0.0000000), wk =   0.0017361
        k(  494) = (   0.3333333  -0.0000000   0.0000000), wk =   0.0008681
        k(  495) = (  -0.1875000   0.3007033   0.0000000), wk =   0.0017361
        k(  496) = (   0.3541667   0.0120281   0.0000000), wk =   0.0017361
        k(  497) = (  -0.2083333   0.3127314   0.0000000), wk =   0.0017361
        k(  498) = (   0.3750000   0.0240563   0.0000000), wk =   0.0017361
        k(  499) = (  -0.2291667   0.3247595   0.0000000), wk =   0.0017361
        k(  500) = (   0.3958333   0.0360844   0.0000000), wk =   0.0017361
        k(  501) = (  -0.2500000   0.3367877   0.0000000), wk =   0.0017361
        k(  502) = (   0.4166667   0.0481125   0.0000000), wk =   0.0017361
        k(  503) = (  -0.2708333   0.3488158   0.0000000), wk =   0.0017361
        k(  504) = (   0.4375000   0.0601407   0.0000000), wk =   0.0017361
        k(  505) = (  -0.2916667   0.3608439   0.0000000), wk =   0.0017361
        k(  506) = (   0.4583333   0.0721688   0.0000000), wk =   0.0017361
        k(  507) = (  -0.3125000   0.3728720   0.0000000), wk =   0.0017361
        k(  508) = (   0.4791667   0.0841969   0.0000000), wk =   0.0017361
        k(  509) = (  -0.3333333   0.3849002   0.0000000), wk =   0.0017361
        k(  510) = (   0.5000000   0.0962250   0.0000000), wk =   0.0017361
        k(  511) = (  -0.3541667   0.3969283   0.0000000), wk =   0.0017361
        k(  512) = (   0.5208333   0.1082532   0.0000000), wk =   0.0017361
        k(  513) = (  -0.3750000   0.4089564   0.0000000), wk =   0.0017361
        k(  514) = (   0.5416667   0.1202813   0.0000000), wk =   0.0017361
        k(  515) = (  -0.3958333   0.4209846   0.0000000), wk =   0.0017361
        k(  516) = (   0.5625000   0.1323094   0.0000000), wk =   0.0017361
        k(  517) = (  -0.4166667   0.4330127   0.0000000), wk =   0.0017361
        k(  518) = (   0.3750000  -0.0000000   0.0000000), wk =   0.0008681
        k(  519) = (  -0.2083333   0.3367877   0.0000000), wk =   0.0017361
        k(  520) = (   0.3958333   0.0120281   0.0000000), wk =   0.0017361
        k(  521) = (  -0.2291667   0.3488158   0.0000000), wk =   0.0017361
        k(  522) = (   0.4166667   0.0240563   0.0000000), wk =   0.0017361
        k(  523) = (  -0.2500000   0.3608439   0.0000000), wk =   0.0017361
        k(  524) = (   0.4375000   0.0360844   0.0000000), wk =   0.0017361
        k(  525) = (  -0.2708333   0.3728720   0.0000000), wk =   0.0017361
        k(  526) = (   0.4583333   0.0481125   0.0000000), wk =   0.0017361
        k(  527) = (  -0.2916667   0.3849002   0.0000000), wk =   0.0017361
        k(  528) = (   0.4791667   0.0601407   0.0000000), wk =   0.0017361
        k(  529) = (  -0.3125000   0.3969283   0.0000000), wk =   0.0017361
        k(  530) = (   0.5000000   0.0721688   0.0000000), wk =   0.0017361
        k(  531) = (  -0.3333333   0.4089564   0.0000000), wk =   0.0017361
        k(  532) = (   0.5208333   0.0841969   0.0000000), wk =   0.0017361
        k(  533) = (  -0.3541667   0.4209846   0.0000000), wk =   0.0017361
        k(  534) = (   0.5416667   0.0962250   0.0000000), wk =   0.0017361
        k(  535) = (  -0.3750000   0.4330127   0.0000000), wk =   0.0017361
        k(  536) = (   0.5625000   0.1082532   0.0000000), wk =   0.0017361
        k(  537) = (  -0.3958333   0.4450408   0.0000000), wk =   0.0017361
        k(  538) = (   0.5833333   0.1202813   0.0000000), wk =   0.0017361
        k(  539) = (   0.4166667  -0.0000000   0.0000000), wk =   0.0008681
        k(  540) = (  -0.2291667   0.3728720   0.0000000), wk =   0.0017361
        k(  541) = (   0.4375000   0.0120281   0.0000000), wk =   0.0017361
        k(  542) = (  -0.2500000   0.3849002   0.0000000), wk =   0.0017361
        k(  543) = (   0.4583333   0.0240563   0.0000000), wk =   0.0017361
        k(  544) = (  -0.2708333   0.3969283   0.0000000), wk =   0.0017361
        k(  545) = (   0.4791667   0.0360844   0.0000000), wk =   0.0017361
        k(  546) = (  -0.2916667   0.4089564   0.0000000), wk =   0.0017361
        k(  547) = (   0.5000000   0.0481125   0.0000000), wk =   0.0017361
        k(  548) = (  -0.3125000   0.4209846   0.0000000), wk =   0.0017361
        k(  549) = (   0.5208333   0.0601407   0.0000000), wk =   0.0017361
        k(  550) = (  -0.3333333   0.4330127   0.0000000), wk =   0.0017361
        k(  551) = (   0.5416667   0.0721688   0.0000000), wk =   0.0017361
        k(  552) = (  -0.3541667   0.4450408   0.0000000), wk =   0.0017361
        k(  553) = (   0.5625000   0.0841969   0.0000000), wk =   0.0017361
        k(  554) = (  -0.3750000   0.4570690   0.0000000), wk =   0.0017361
        k(  555) = (   0.5833333   0.0962250   0.0000000), wk =   0.0017361
        k(  556) = (  -0.3958333   0.4690971   0.0000000), wk =   0.0017361
        k(  557) = (   0.4583333  -0.0000000   0.0000000), wk =   0.0008681
        k(  558) = (  -0.2500000   0.4089564   0.0000000), wk =   0.0017361
        k(  559) = (   0.4791667   0.0120281   0.0000000), wk =   0.0017361
        k(  560) = (  -0.2708333   0.4209846   0.0000000), wk =   0.0017361
        k(  561) = (   0.5000000   0.0240563   0.0000000), wk =   0.0017361
        k(  562) = (  -0.2916667   0.4330127   0.0000000), wk =   0.0017361
        k(  563) = (   0.5208333   0.0360844   0.0000000), wk =   0.0017361
        k(  564) = (  -0.3125000   0.4450408   0.0000000), wk =   0.0017361
        k(  565) = (   0.5416667   0.0481125   0.0000000), wk =   0.0017361
        k(  566) = (  -0.3333333   0.4570690   0.0000000), wk =   0.0017361
        k(  567) = (   0.5625000   0.0601407   0.0000000), wk =   0.0017361
        k(  568) = (  -0.3541667   0.4690971   0.0000000), wk =   0.0017361
        k(  569) = (   0.5833333   0.0721688   0.0000000), wk =   0.0017361
        k(  570) = (  -0.3750000   0.4811252   0.0000000), wk =   0.0017361
        k(  571) = (   0.6041667   0.0841969   0.0000000), wk =   0.0017361
        k(  572) = (   0.5000000  -0.0000000   0.0000000), wk =   0.0008681
        k(  573) = (  -0.2708333   0.4450408   0.0000000), wk =   0.0017361
        k(  574) = (   0.5208333   0.0120281   0.0000000), wk =   0.0017361
        k(  575) = (  -0.2916667   0.4570690   0.0000000), wk =   0.0017361
        k(  576) = (   0.5416667   0.0240563   0.0000000), wk =   0.0017361
        k(  577) = (  -0.3125000   0.4690971   0.0000000), wk =   0.0017361
        k(  578) = (   0.5625000   0.0360844   0.0000000), wk =   0.0017361
        k(  579) = (  -0.3333333   0.4811252   0.0000000), wk =   0.0017361
        k(  580) = (   0.5833333   0.0481125   0.0000000), wk =   0.0017361
        k(  581) = (  -0.3541667   0.4931534   0.0000000), wk =   0.0017361
        k(  582) = (   0.6041667   0.0601407   0.0000000), wk =   0.0017361
        k(  583) = (  -0.3750000   0.5051815   0.0000000), wk =   0.0017361
        k(  584) = (   0.5416667  -0.0000000   0.0000000), wk =   0.0008681
        k(  585) = (  -0.2916667   0.4811252   0.0000000), wk =   0.0017361
        k(  586) = (   0.5625000   0.0120281   0.0000000), wk =   0.0017361
        k(  587) = (  -0.3125000   0.4931534   0.0000000), wk =   0.0017361
        k(  588) = (   0.5833333   0.0240563   0.0000000), wk =   0.0017361
        k(  589) = (  -0.3333333   0.5051815   0.0000000), wk =   0.0017361
        k(  590) = (   0.6041667   0.0360844   0.0000000), wk =   0.0017361
        k(  591) = (  -0.3541667   0.5172096   0.0000000), wk =   0.0017361
        k(  592) = (   0.6250000   0.0481125   0.0000000), wk =   0.0017361
        k(  593) = (   0.5833333  -0.0000000   0.0000000), wk =   0.0008681
        k(  594) = (  -0.3125000   0.5172096   0.0000000), wk =   0.0017361
        k(  595) = (   0.6041667   0.0120281   0.0000000), wk =   0.0017361
        k(  596) = (  -0.3333333   0.5292377   0.0000000), wk =   0.0017361
        k(  597) = (   0.6250000   0.0240563   0.0000000), wk =   0.0017361
        k(  598) = (  -0.3541667   0.5412659   0.0000000), wk =   0.0017361
        k(  599) = (   0.6250000  -0.0000000   0.0000000), wk =   0.0008681
        k(  600) = (  -0.3333333   0.5532940   0.0000000), wk =   0.0017361
        k(  601) = (   0.6458333   0.0120281   0.0000000), wk =   0.0017361
        k(  602) = (   0.0000000   0.0000000   0.0000000), wk =   0.0004340
        k(  603) = (   0.0000000   0.0240563   0.0000000), wk =   0.0008681
        k(  604) = (   0.0000000   0.0481125   0.0000000), wk =   0.0008681
        k(  605) = (   0.0000000   0.0721688   0.0000000), wk =   0.0008681
        k(  606) = (   0.0000000   0.0962250   0.0000000), wk =   0.0008681
        k(  607) = (   0.0000000   0.1202813   0.0000000), wk =   0.0008681
        k(  608) = (   0.0000000   0.1443376   0.0000000), wk =   0.0008681
        k(  609) = (   0.0000000   0.1683938   0.0000000), wk =   0.0008681
        k(  610) = (   0.0000000   0.1924501   0.0000000), wk =   0.0008681
        k(  611) = (   0.0000000   0.2165064   0.0000000), wk =   0.0008681
        k(  612) = (   0.0000000   0.2405626   0.0000000), wk =   0.0008681
        k(  613) = (   0.0000000   0.2646189   0.0000000), wk =   0.0008681
        k(  614) = (   0.0000000   0.2886751   0.0000000), wk =   0.0008681
        k(  615) = (   0.0000000   0.3127314   0.0000000), wk =   0.0008681
        k(  616) = (   0.0000000   0.3367877   0.0000000), wk =   0.0008681
        k(  617) = (   0.0000000   0.3608439   0.0000000), wk =   0.0008681
        k(  618) = (   0.0000000   0.3849002   0.0000000), wk =   0.0008681
        k(  619) = (   0.0000000   0.4089564   0.0000000), wk =   0.0008681
        k(  620) = (   0.0000000   0.4330127   0.0000000), wk =   0.0008681
        k(  621) = (   0.0000000   0.4570690   0.0000000), wk =   0.0008681
        k(  622) = (   0.0000000   0.4811252   0.0000000), wk =   0.0008681
        k(  623) = (   0.0000000   0.5051815   0.0000000), wk =   0.0008681
        k(  624) = (   0.0000000   0.5292377   0.0000000), wk =   0.0008681
        k(  625) = (   0.0000000   0.5532940   0.0000000), wk =   0.0008681
        k(  626) = (   0.0000000  -0.5773503   0.0000000), wk =   0.0004340
        k(  627) = (   0.0208333   0.0360844   0.0000000), wk =   0.0017361
        k(  628) = (   0.0208333   0.0601407   0.0000000), wk =   0.0017361
        k(  629) = (   0.0208333   0.0841969   0.0000000), wk =   0.0017361
        k(  630) = (   0.0208333   0.1082532   0.0000000), wk =   0.0017361
        k(  631) = (   0.0208333   0.1323094   0.0000000), wk =   0.0017361
        k(  632) = (   0.0208333   0.1563657   0.0000000), wk =   0.0017361
        k(  633) = (   0.0208333   0.1804220   0.0000000), wk =   0.0017361
        k(  634) = (   0.0208333   0.2044782   0.0000000), wk =   0.0017361
        k(  635) = (   0.0208333   0.2285345   0.0000000), wk =   0.0017361
        k(  636) = (   0.0208333   0.2525907   0.0000000), wk =   0.0017361
        k(  637) = (   0.0208333   0.2766470   0.0000000), wk =   0.0017361
        k(  638) = (   0.0208333   0.3007033   0.0000000), wk =   0.0017361
        k(  639) = (   0.0208333   0.3247595   0.0000000), wk =   0.0017361
        k(  640) = (   0.0208333   0.3488158   0.0000000), wk =   0.0017361
        k(  641) = (   0.0208333   0.3728720   0.0000000), wk =   0.0017361
        k(  642) = (   0.0208333   0.3969283   0.0000000), wk =   0.0017361
        k(  643) = (   0.0208333   0.4209846   0.0000000), wk =   0.0017361
        k(  644) = (   0.0208333   0.4450408   0.0000000), wk =   0.0017361
        k(  645) = (   0.0208333   0.4690971   0.0000000), wk =   0.0017361
        k(  646) = (   0.0208333   0.4931534   0.0000000), wk =   0.0017361
        k(  647) = (   0.0208333   0.5172096   0.0000000), wk =   0.0017361
        k(  648) = (   0.0208333   0.5412659   0.0000000), wk =   0.0017361
        k(  649) = (   0.0208333   0.5653221   0.0000000), wk =   0.0017361
        k(  650) = (   0.0416667   0.0721688   0.0000000), wk =   0.0017361
        k(  651) = (   0.0416667   0.0962250   0.0000000), wk =   0.0017361
        k(  652) = (   0.0416667   0.1202813   0.0000000), wk =   0.0017361
        k(  653) = (   0.0416667   0.1443376   0.0000000), wk =   0.0017361
        k(  654) = (   0.0416667   0.1683938   0.0000000), wk =   0.0017361
        k(  655) = (   0.0416667   0.1924501   0.0000000), wk =   0.0017361
        k(  656) = (   0.0416667   0.2165064   0.0000000), wk =   0.0017361
        k(  657) = (   0.0416667   0.2405626   0.0000000), wk =   0.0017361
        k(  658) = (   0.0416667   0.2646189   0.0000000), wk =   0.0017361
        k(  659) = (   0.0416667   0.2886751   0.0000000), wk =   0.0017361
        k(  660) = (   0.0416667   0.3127314   0.0000000), wk =   0.0017361
        k(  661) = (   0.0416667   0.3367877   0.0000000), wk =   0.0017361
        k(  662) = (   0.0416667   0.3608439   0.0000000), wk =   0.0017361
        k(  663) = (   0.0416667   0.3849002   0.0000000), wk =   0.0017361
        k(  664) = (   0.0416667   0.4089564   0.0000000), wk =   0.0017361
        k(  665) = (   0.0416667   0.4330127   0.0000000), wk =   0.0017361
        k(  666) = (   0.0416667   0.4570690   0.0000000), wk =   0.0017361
        k(  667) = (   0.0416667   0.4811252   0.0000000), wk =   0.0017361
        k(  668) = (   0.0416667   0.5051815   0.0000000), wk =   0.0017361
        k(  669) = (   0.0416667   0.5292377   0.0000000), wk =   0.0017361
        k(  670) = (   0.0416667   0.5532940   0.0000000), wk =   0.0017361
        k(  671) = (   0.0416667   0.5773503   0.0000000), wk =   0.0008681
        k(  672) = (   0.0625000   0.1082532   0.0000000), wk =   0.0017361
        k(  673) = (   0.0625000   0.1323094   0.0000000), wk =   0.0017361
        k(  674) = (   0.0625000   0.1563657   0.0000000), wk =   0.0017361
        k(  675) = (   0.0625000   0.1804220   0.0000000), wk =   0.0017361
        k(  676) = (   0.0625000   0.2044782   0.0000000), wk =   0.0017361
        k(  677) = (   0.0625000   0.2285345   0.0000000), wk =   0.0017361
        k(  678) = (   0.0625000   0.2525907   0.0000000), wk =   0.0017361
        k(  679) = (   0.0625000   0.2766470   0.0000000), wk =   0.0017361
        k(  680) = (   0.0625000   0.3007033   0.0000000), wk =   0.0017361
        k(  681) = (   0.0625000   0.3247595   0.0000000), wk =   0.0017361
        k(  682) = (   0.0625000   0.3488158   0.0000000), wk =   0.0017361
        k(  683) = (   0.0625000   0.3728720   0.0000000), wk =   0.0017361
        k(  684) = (   0.0625000   0.3969283   0.0000000), wk =   0.0017361
        k(  685) = (   0.0625000   0.4209846   0.0000000), wk =   0.0017361
        k(  686) = (   0.0625000   0.4450408   0.0000000), wk =   0.0017361
        k(  687) = (   0.0625000   0.4690971   0.0000000), wk =   0.0017361
        k(  688) = (   0.0625000   0.4931534   0.0000000), wk =   0.0017361
        k(  689) = (   0.0625000   0.5172096   0.0000000), wk =   0.0017361
        k(  690) = (   0.0625000   0.5412659   0.0000000), wk =   0.0017361
        k(  691) = (   0.0625000   0.5653221   0.0000000), wk =   0.0017361
        k(  692) = (   0.0833333   0.1443376   0.0000000), wk =   0.0017361
        k(  693) = (   0.0833333   0.1683938   0.0000000), wk =   0.0017361
        k(  694) = (   0.0833333   0.1924501   0.0000000), wk =   0.0017361
        k(  695) = (   0.0833333   0.2165064   0.0000000), wk =   0.0017361
        k(  696) = (   0.0833333   0.2405626   0.0000000), wk =   0.0017361
        k(  697) = (   0.0833333   0.2646189   0.0000000), wk =   0.0017361
        k(  698) = (   0.0833333   0.2886751   0.0000000), wk =   0.0017361
        k(  699) = (   0.0833333   0.3127314   0.0000000), wk =   0.0017361
        k(  700) = (   0.0833333   0.3367877   0.0000000), wk =   0.0017361
        k(  701) = (   0.0833333   0.3608439   0.0000000), wk =   0.0017361
        k(  702) = (   0.0833333   0.3849002   0.0000000), wk =   0.0017361
        k(  703) = (   0.0833333   0.4089564   0.0000000), wk =   0.0017361
        k(  704) = (   0.0833333   0.4330127   0.0000000), wk =   0.0017361
        k(  705) = (   0.0833333   0.4570690   0.0000000), wk =   0.0017361
        k(  706) = (   0.0833333   0.4811252   0.0000000), wk =   0.0017361
        k(  707) = (   0.0833333   0.5051815   0.0000000), wk =   0.0017361
        k(  708) = (   0.0833333   0.5292377   0.0000000), wk =   0.0017361
        k(  709) = (   0.0833333   0.5532940   0.0000000), wk =   0.0017361
        k(  710) = (   0.0833333   0.5773503   0.0000000), wk =   0.0008681
        k(  711) = (   0.1041667   0.1804220   0.0000000), wk =   0.0017361
        k(  712) = (   0.1041667   0.2044782   0.0000000), wk =   0.0017361
        k(  713) = (   0.1041667   0.2285345   0.0000000), wk =   0.0017361
        k(  714) = (   0.1041667   0.2525907   0.0000000), wk =   0.0017361
        k(  715) = (   0.1041667   0.2766470   0.0000000), wk =   0.0017361
        k(  716) = (   0.1041667   0.3007033   0.0000000), wk =   0.0017361
        k(  717) = (   0.1041667   0.3247595   0.0000000), wk =   0.0017361
        k(  718) = (   0.1041667   0.3488158   0.0000000), wk =   0.0017361
        k(  719) = (   0.1041667   0.3728720   0.0000000), wk =   0.0017361
        k(  720) = (   0.1041667   0.3969283   0.0000000), wk =   0.0017361
        k(  721) = (   0.1041667   0.4209846   0.0000000), wk =   0.0017361
        k(  722) = (   0.1041667   0.4450408   0.0000000), wk =   0.0017361
        k(  723) = (   0.1041667   0.4690971   0.0000000), wk =   0.0017361
        k(  724) = (   0.1041667   0.4931534   0.0000000), wk =   0.0017361
        k(  725) = (   0.1041667   0.5172096   0.0000000), wk =   0.0017361
        k(  726) = (   0.1041667   0.5412659   0.0000000), wk =   0.0017361
        k(  727) = (   0.1041667   0.5653221   0.0000000), wk =   0.0017361
        k(  728) = (   0.1250000   0.2165064   0.0000000), wk =   0.0017361
        k(  729) = (   0.1250000   0.2405626   0.0000000), wk =   0.0017361
        k(  730) = (   0.1250000   0.2646189   0.0000000), wk =   0.0017361
        k(  731) = (   0.1250000   0.2886751   0.0000000), wk =   0.0017361
        k(  732) = (   0.1250000   0.3127314   0.0000000), wk =   0.0017361
        k(  733) = (   0.1250000   0.3367877   0.0000000), wk =   0.0017361
        k(  734) = (   0.1250000   0.3608439   0.0000000), wk =   0.0017361
        k(  735) = (   0.1250000   0.3849002   0.0000000), wk =   0.0017361
        k(  736) = (   0.1250000   0.4089564   0.0000000), wk =   0.0017361
        k(  737) = (   0.1250000   0.4330127   0.0000000), wk =   0.0017361
        k(  738) = (   0.1250000   0.4570690   0.0000000), wk =   0.0017361
        k(  739) = (   0.1250000   0.4811252   0.0000000), wk =   0.0017361
        k(  740) = (   0.1250000   0.5051815   0.0000000), wk =   0.0017361
        k(  741) = (   0.1250000   0.5292377   0.0000000), wk =   0.0017361
        k(  742) = (   0.1250000   0.5532940   0.0000000), wk =   0.0017361
        k(  743) = (   0.1250000   0.5773503   0.0000000), wk =   0.0008681
        k(  744) = (   0.1458333   0.2525907   0.0000000), wk =   0.0017361
        k(  745) = (   0.1458333   0.2766470   0.0000000), wk =   0.0017361
        k(  746) = (   0.1458333   0.3007033   0.0000000), wk =   0.0017361
        k(  747) = (   0.1458333   0.3247595   0.0000000), wk =   0.0017361
        k(  748) = (   0.1458333   0.3488158   0.0000000), wk =   0.0017361
        k(  749) = (   0.1458333   0.3728720   0.0000000), wk =   0.0017361
        k(  750) = (   0.1458333   0.3969283   0.0000000), wk =   0.0017361
        k(  751) = (   0.1458333   0.4209846   0.0000000), wk =   0.0017361
        k(  752) = (   0.1458333   0.4450408   0.0000000), wk =   0.0017361
        k(  753) = (   0.1458333   0.4690971   0.0000000), wk =   0.0017361
        k(  754) = (   0.1458333   0.4931534   0.0000000), wk =   0.0017361
        k(  755) = (   0.1458333   0.5172096   0.0000000), wk =   0.0017361
        k(  756) = (   0.1458333   0.5412659   0.0000000), wk =   0.0017361
        k(  757) = (   0.1458333   0.5653221   0.0000000), wk =   0.0017361
        k(  758) = (   0.1666667   0.2886751   0.0000000), wk =   0.0017361
        k(  759) = (   0.1666667   0.3127314   0.0000000), wk =   0.0017361
        k(  760) = (   0.1666667   0.3367877   0.0000000), wk =   0.0017361
        k(  761) = (   0.1666667   0.3608439   0.0000000), wk =   0.0017361
        k(  762) = (   0.1666667   0.3849002   0.0000000), wk =   0.0017361
        k(  763) = (   0.1666667   0.4089564   0.0000000), wk =   0.0017361
        k(  764) = (   0.1666667   0.4330127   0.0000000), wk =   0.0017361
        k(  765) = (   0.1666667   0.4570690   0.0000000), wk =   0.0017361
        k(  766) = (   0.1666667   0.4811252   0.0000000), wk =   0.0017361
        k(  767) = (   0.1666667   0.5051815   0.0000000), wk =   0.0017361
        k(  768) = (   0.1666667   0.5292377   0.0000000), wk =   0.0017361
        k(  769) = (   0.1666667   0.5532940   0.0000000), wk =   0.0017361
        k(  770) = (   0.1666667   0.5773503   0.0000000), wk =   0.0008681
        k(  771) = (   0.1875000   0.3247595   0.0000000), wk =   0.0017361
        k(  772) = (   0.1875000   0.3488158   0.0000000), wk =   0.0017361
        k(  773) = (   0.1875000   0.3728720   0.0000000), wk =   0.0017361
        k(  774) = (   0.1875000   0.3969283   0.0000000), wk =   0.0017361
        k(  775) = (   0.1875000   0.4209846   0.0000000), wk =   0.0017361
        k(  776) = (   0.1875000   0.4450408   0.0000000), wk =   0.0017361
        k(  777) = (   0.1875000   0.4690971   0.0000000), wk =   0.0017361
        k(  778) = (   0.1875000   0.4931534   0.0000000), wk =   0.0017361
        k(  779) = (   0.1875000   0.5172096   0.0000000), wk =   0.0017361
        k(  780) = (   0.1875000   0.5412659   0.0000000), wk =   0.0017361
        k(  781) = (   0.1875000   0.5653221   0.0000000), wk =   0.0017361
        k(  782) = (   0.2083333   0.3608439   0.0000000), wk =   0.0017361
        k(  783) = (   0.2083333   0.3849002   0.0000000), wk =   0.0017361
        k(  784) = (   0.2083333   0.4089564   0.0000000), wk =   0.0017361
        k(  785) = (   0.2083333   0.4330127   0.0000000), wk =   0.0017361
        k(  786) = (   0.2083333   0.4570690   0.0000000), wk =   0.0017361
        k(  787) = (   0.2083333   0.4811252   0.0000000), wk =   0.0017361
        k(  788) = (   0.2083333   0.5051815   0.0000000), wk =   0.0017361
        k(  789) = (   0.2083333   0.5292377   0.0000000), wk =   0.0017361
        k(  790) = (   0.2083333   0.5532940   0.0000000), wk =   0.0017361
        k(  791) = (   0.2083333   0.5773503   0.0000000), wk =   0.0008681
        k(  792) = (   0.2291667   0.3969283   0.0000000), wk =   0.0017361
        k(  793) = (   0.2291667   0.4209846   0.0000000), wk =   0.0017361
        k(  794) = (   0.2291667   0.4450408   0.0000000), wk =   0.0017361
        k(  795) = (   0.2291667   0.4690971   0.0000000), wk =   0.0017361
        k(  796) = (   0.2291667   0.4931534   0.0000000), wk =   0.0017361
        k(  797) = (   0.2291667   0.5172096   0.0000000), wk =   0.0017361
        k(  798) = (   0.2291667   0.5412659   0.0000000), wk =   0.0017361
        k(  799) = (   0.2291667   0.5653221   0.0000000), wk =   0.0017361
        k(  800) = (   0.2500000   0.4330127   0.0000000), wk =   0.0017361
        k(  801) = (   0.2500000   0.4570690   0.0000000), wk =   0.0017361
        k(  802) = (   0.2500000   0.4811252   0.0000000), wk =   0.0017361
        k(  803) = (   0.2500000   0.5051815   0.0000000), wk =   0.0017361
        k(  804) = (   0.2500000   0.5292377   0.0000000), wk =   0.0017361
        k(  805) = (   0.2500000   0.5532940   0.0000000), wk =   0.0017361
        k(  806) = (   0.2500000   0.5773503   0.0000000), wk =   0.0008681
        k(  807) = (   0.2708333   0.4690971   0.0000000), wk =   0.0017361
        k(  808) = (   0.2708333   0.4931534   0.0000000), wk =   0.0017361
        k(  809) = (   0.2708333   0.5172096   0.0000000), wk =   0.0017361
        k(  810) = (   0.2708333   0.5412659   0.0000000), wk =   0.0017361
        k(  811) = (   0.2708333   0.5653221   0.0000000), wk =   0.0017361
        k(  812) = (   0.2916667   0.5051815   0.0000000), wk =   0.0017361
        k(  813) = (   0.2916667   0.5292377   0.0000000), wk =   0.0017361
        k(  814) = (   0.2916667   0.5532940   0.0000000), wk =   0.0017361
        k(  815) = (   0.2916667   0.5773503   0.0000000), wk =   0.0008681
        k(  816) = (   0.3125000   0.5412659   0.0000000), wk =   0.0017361
        k(  817) = (   0.3125000   0.5653221   0.0000000), wk =   0.0017361
        k(  818) = (   0.3333333   0.5773503   0.0000000), wk =   0.0008681
        k(  819) = (  -0.0208333   0.0120281   0.0000000), wk =   0.0017361
        k(  820) = (  -0.0416667   0.0240563   0.0000000), wk =   0.0017361
        k(  821) = (  -0.0625000   0.0360844   0.0000000), wk =   0.0017361
        k(  822) = (  -0.0833333   0.0481125   0.0000000), wk =   0.0017361
        k(  823) = (  -0.1041667   0.0601407   0.0000000), wk =   0.0017361
        k(  824) = (  -0.1250000   0.0721688   0.0000000), wk =   0.0017361
        k(  825) = (  -0.1458333   0.0841969   0.0000000), wk =   0.0017361
        k(  826) = (  -0.1666667   0.0962250   0.0000000), wk =   0.0017361
        k(  827) = (  -0.1875000   0.1082532   0.0000000), wk =   0.0017361
        k(  828) = (  -0.2083333   0.1202813   0.0000000), wk =   0.0017361
        k(  829) = (  -0.2291667   0.1323094   0.0000000), wk =   0.0017361
        k(  830) = (  -0.2500000   0.1443376   0.0000000), wk =   0.0017361
        k(  831) = (  -0.2708333   0.1563657   0.0000000), wk =   0.0017361
        k(  832) = (  -0.2916667   0.1683938   0.0000000), wk =   0.0017361
        k(  833) = (  -0.3125000   0.1804220   0.0000000), wk =   0.0017361
        k(  834) = (  -0.3333333   0.1924501   0.0000000), wk =   0.0017361
        k(  835) = (  -0.3541667   0.2044782   0.0000000), wk =   0.0017361
        k(  836) = (  -0.3750000   0.2165064   0.0000000), wk =   0.0017361
        k(  837) = (  -0.3958333   0.2285345   0.0000000), wk =   0.0017361
        k(  838) = (  -0.4166667   0.2405626   0.0000000), wk =   0.0017361
        k(  839) = (  -0.4375000   0.2525907   0.0000000), wk =   0.0017361
        k(  840) = (  -0.4583333   0.2646189   0.0000000), wk =   0.0017361
        k(  841) = (  -0.4791667   0.2766470   0.0000000), wk =   0.0017361
        k(  842) = (   0.5000000  -0.2886751   0.0000000), wk =   0.0008681
        k(  843) = (   0.0416667  -0.0000000   0.0000000), wk =   0.0008681
        k(  844) = (  -0.0416667   0.0481125   0.0000000), wk =   0.0017361
        k(  845) = (   0.0625000   0.0120281   0.0000000), wk =   0.0017361
        k(  846) = (  -0.0625000   0.0601407   0.0000000), wk =   0.0017361
        k(  847) = (   0.0833333   0.0240563   0.0000000), wk =   0.0017361
        k(  848) = (  -0.0833333   0.0721688   0.0000000), wk =   0.0017361
        k(  849) = (   0.1041667   0.0360844   0.0000000), wk =   0.0017361
        k(  850) = (  -0.1041667   0.0841969   0.0000000), wk =   0.0017361
        k(  851) = (   0.1250000   0.0481125   0.0000000), wk =   0.0017361
        k(  852) = (  -0.1250000   0.0962250   0.0000000), wk =   0.0017361
        k(  853) = (   0.1458333   0.0601407   0.0000000), wk =   0.0017361
        k(  854) = (  -0.1458333   0.1082532   0.0000000), wk =   0.0017361
        k(  855) = (   0.1666667   0.0721688   0.0000000), wk =   0.0017361
        k(  856) = (  -0.1666667   0.1202813   0.0000000), wk =   0.0017361
        k(  857) = (   0.1875000   0.0841969   0.0000000), wk =   0.0017361
        k(  858) = (  -0.1875000   0.1323094   0.0000000), wk =   0.0017361
        k(  859) = (   0.2083333   0.0962250   0.0000000), wk =   0.0017361
        k(  860) = (  -0.2083333   0.1443376   0.0000000), wk =   0.0017361
        k(  861) = (   0.2291667   0.1082532   0.0000000), wk =   0.0017361
        k(  862) = (  -0.2291667   0.1563657   0.0000000), wk =   0.0017361
        k(  863) = (   0.2500000   0.1202813   0.0000000), wk =   0.0017361
        k(  864) = (  -0.2500000   0.1683938   0.0000000), wk =   0.0017361
        k(  865) = (   0.2708333   0.1323094   0.0000000), wk =   0.0017361
        k(  866) = (  -0.2708333   0.1804220   0.0000000), wk =   0.0017361
        k(  867) = (   0.2916667   0.1443376   0.0000000), wk =   0.0017361
        k(  868) = (  -0.2916667   0.1924501   0.0000000), wk =   0.0017361
        k(  869) = (   0.3125000   0.1563657   0.0000000), wk =   0.0017361
        k(  870) = (  -0.3125000   0.2044782   0.0000000), wk =   0.0017361
        k(  871) = (   0.3333333   0.1683938   0.0000000), wk =   0.0017361
        k(  872) = (  -0.3333333   0.2165064   0.0000000), wk =   0.0017361
        k(  873) = (   0.3541667   0.1804220   0.0000000), wk =   0.0017361
        k(  874) = (  -0.3541667   0.2285345   0.0000000), wk =   0.0017361
        k(  875) = (   0.3750000   0.1924501   0.0000000), wk =   0.0017361
        k(  876) = (  -0.3750000   0.2405626   0.0000000), wk =   0.0017361
        k(  877) = (   0.3958333   0.2044782   0.0000000), wk =   0.0017361
        k(  878) = (  -0.3958333   0.2525907   0.0000000), wk =   0.0017361
        k(  879) = (   0.4166667   0.2165064   0.0000000), wk =   0.0017361
        k(  880) = (  -0.4166667   0.2646189   0.0000000), wk =   0.0017361
        k(  881) = (   0.4375000   0.2285345   0.0000000), wk =   0.0017361
        k(  882) = (  -0.4375000   0.2766470   0.0000000), wk =   0.0017361
        k(  883) = (   0.4583333   0.2405626   0.0000000), wk =   0.0017361
        k(  884) = (  -0.4583333   0.2886751   0.0000000), wk =   0.0017361
        k(  885) = (   0.4791667   0.2525907   0.0000000), wk =   0.0017361
        k(  886) = (  -0.4791667   0.3007033   0.0000000), wk =   0.0017361
        k(  887) = (   0.5000000   0.2646189   0.0000000), wk =   0.0017361
        k(  888) = (   0.0833333  -0.0000000   0.0000000), wk =   0.0008681
        k(  889) = (  -0.0625000   0.0841969   0.0000000), wk =   0.0017361
        k(  890) = (   0.1041667   0.0120281   0.0000000), wk =   0.0017361
        k(  891) = (  -0.0833333   0.0962250   0.0000000), wk =   0.0017361
        k(  892) = (   0.1250000   0.0240563   0.0000000), wk =   0.0017361
        k(  893) = (  -0.1041667   0.1082532   0.0000000), wk =   0.0017361
        k(  894) = (   0.1458333   0.0360844   0.0000000), wk =   0.0017361
        k(  895) = (  -0.1250000   0.1202813   0.0000000), wk =   0.0017361
        k(  896) = (   0.1666667   0.0481125   0.0000000), wk =   0.0017361
        k(  897) = (  -0.1458333   0.1323094   0.0000000), wk =   0.0017361
        k(  898) = (   0.1875000   0.0601407   0.0000000), wk =   0.0017361
        k(  899) = (  -0.1666667   0.1443376   0.0000000), wk =   0.0017361
        k(  900) = (   0.2083333   0.0721688   0.0000000), wk =   0.0017361
        k(  901) = (  -0.1875000   0.1563657   0.0000000), wk =   0.0017361
        k(  902) = (   0.2291667   0.0841969   0.0000000), wk =   0.0017361
        k(  903) = (  -0.2083333   0.1683938   0.0000000), wk =   0.0017361
        k(  904) = (   0.2500000   0.0962250   0.0000000), wk =   0.0017361
        k(  905) = (  -0.2291667   0.1804220   0.0000000), wk =   0.0017361
        k(  906) = (   0.2708333   0.1082532   0.0000000), wk =   0.0017361
        k(  907) = (  -0.2500000   0.1924501   0.0000000), wk =   0.0017361
        k(  908) = (   0.2916667   0.1202813   0.0000000), wk =   0.0017361
        k(  909) = (  -0.2708333   0.2044782   0.0000000), wk =   0.0017361
        k(  910) = (   0.3125000   0.1323094   0.0000000), wk =   0.0017361
        k(  911) = (  -0.2916667   0.2165064   0.0000000), wk =   0.0017361
        k(  912) = (   0.3333333   0.1443376   0.0000000), wk =   0.0017361
        k(  913) = (  -0.3125000   0.2285345   0.0000000), wk =   0.0017361
        k(  914) = (   0.3541667   0.1563657   0.0000000), wk =   0.0017361
        k(  915) = (  -0.3333333   0.2405626   0.0000000), wk =   0.0017361
        k(  916) = (   0.3750000   0.1683938   0.0000000), wk =   0.0017361
        k(  917) = (  -0.3541667   0.2525907   0.0000000), wk =   0.0017361
        k(  918) = (   0.3958333   0.1804220   0.0000000), wk =   0.0017361
        k(  919) = (  -0.3750000   0.2646189   0.0000000), wk =   0.0017361
        k(  920) = (   0.4166667   0.1924501   0.0000000), wk =   0.0017361
        k(  921) = (  -0.3958333   0.2766470   0.0000000), wk =   0.0017361
        k(  922) = (   0.4375000   0.2044782   0.0000000), wk =   0.0017361
        k(  923) = (  -0.4166667   0.2886751   0.0000000), wk =   0.0017361
        k(  924) = (   0.4583333   0.2165064   0.0000000), wk =   0.0017361
        k(  925) = (  -0.4375000   0.3007033   0.0000000), wk =   0.0017361
        k(  926) = (   0.4791667   0.2285345   0.0000000), wk =   0.0017361
        k(  927) = (  -0.4583333   0.3127314   0.0000000), wk =   0.0017361
        k(  928) = (   0.5000000   0.2405626   0.0000000), wk =   0.0017361
        k(  929) = (  -0.4791667   0.3247595   0.0000000), wk =   0.0017361
        k(  930) = (   0.1250000  -0.0000000   0.0000000), wk =   0.0008681
        k(  931) = (  -0.0833333   0.1202813   0.0000000), wk =   0.0017361
        k(  932) = (   0.1458333   0.0120281   0.0000000), wk =   0.0017361
        k(  933) = (  -0.1041667   0.1323094   0.0000000), wk =   0.0017361
        k(  934) = (   0.1666667   0.0240563   0.0000000), wk =   0.0017361
        k(  935) = (  -0.1250000   0.1443376   0.0000000), wk =   0.0017361
        k(  936) = (   0.1875000   0.0360844   0.0000000), wk =   0.0017361
        k(  937) = (  -0.1458333   0.1563657   0.0000000), wk =   0.0017361
        k(  938) = (   0.2083333   0.0481125   0.0000000), wk =   0.0017361
        k(  939) = (  -0.1666667   0.1683938   0.0000000), wk =   0.0017361
        k(  940) = (   0.2291667   0.0601407   0.0000000), wk =   0.0017361
        k(  941) = (  -0.1875000   0.1804220   0.0000000), wk =   0.0017361
        k(  942) = (   0.2500000   0.0721688   0.0000000), wk =   0.0017361
        k(  943) = (  -0.2083333   0.1924501   0.0000000), wk =   0.0017361
        k(  944) = (   0.2708333   0.0841969   0.0000000), wk =   0.0017361
        k(  945) = (  -0.2291667   0.2044782   0.0000000), wk =   0.0017361
        k(  946) = (   0.2916667   0.0962250   0.0000000), wk =   0.0017361
        k(  947) = (  -0.2500000   0.2165064   0.0000000), wk =   0.0017361
        k(  948) = (   0.3125000   0.1082532   0.0000000), wk =   0.0017361
        k(  949) = (  -0.2708333   0.2285345   0.0000000), wk =   0.0017361
        k(  950) = (   0.3333333   0.1202813   0.0000000), wk =   0.0017361
        k(  951) = (  -0.2916667   0.2405626   0.0000000), wk =   0.0017361
        k(  952) = (   0.3541667   0.1323094   0.0000000), wk =   0.0017361
        k(  953) = (  -0.3125000   0.2525907   0.0000000), wk =   0.0017361
        k(  954) = (   0.3750000   0.1443376   0.0000000), wk =   0.0017361
        k(  955) = (  -0.3333333   0.2646189   0.0000000), wk =   0.0017361
        k(  956) = (   0.3958333   0.1563657   0.0000000), wk =   0.0017361
        k(  957) = (  -0.3541667   0.2766470   0.0000000), wk =   0.0017361
        k(  958) = (   0.4166667   0.1683938   0.0000000), wk =   0.0017361
        k(  959) = (  -0.3750000   0.2886751   0.0000000), wk =   0.0017361
        k(  960) = (   0.4375000   0.1804220   0.0000000), wk =   0.0017361
        k(  961) = (  -0.3958333   0.3007033   0.0000000), wk =   0.0017361
        k(  962) = (   0.4583333   0.1924501   0.0000000), wk =   0.0017361
        k(  963) = (  -0.4166667   0.3127314   0.0000000), wk =   0.0017361
        k(  964) = (   0.4791667   0.2044782   0.0000000), wk =   0.0017361
        k(  965) = (  -0.4375000   0.3247595   0.0000000), wk =   0.0017361
        k(  966) = (   0.5000000   0.2165064   0.0000000), wk =   0.0017361
        k(  967) = (  -0.4583333   0.3367877   0.0000000), wk =   0.0017361
        k(  968) = (   0.5208333   0.2285345   0.0000000), wk =   0.0017361
        k(  969) = (   0.1666667  -0.0000000   0.0000000), wk =   0.0008681
        k(  970) = (  -0.1041667   0.1563657   0.0000000), wk =   0.0017361
        k(  971) = (   0.1875000   0.0120281   0.0000000), wk =   0.0017361
        k(  972) = (  -0.1250000   0.1683938   0.0000000), wk =   0.0017361
        k(  973) = (   0.2083333   0.0240563   0.0000000), wk =   0.0017361
        k(  974) = (  -0.1458333   0.1804220   0.0000000), wk =   0.0017361
        k(  975) = (   0.2291667   0.0360844   0.0000000), wk =   0.0017361
        k(  976) = (  -0.1666667   0.1924501   0.0000000), wk =   0.0017361
        k(  977) = (   0.2500000   0.0481125   0.0000000), wk =   0.0017361
        k(  978) = (  -0.1875000   0.2044782   0.0000000), wk =   0.0017361
        k(  979) = (   0.2708333   0.0601407   0.0000000), wk =   0.0017361
        k(  980) = (  -0.2083333   0.2165064   0.0000000), wk =   0.0017361
[...]
     0.0000   0.0000   0.0000   0.0000

          k = 0.5000 0.0481 0.0000 (  3026 PWs)   bands (ev):

   -15.6979 -15.6205 -11.3315 -11.2801  -9.1555  -9.1196  -3.5017  -2.8965
     1.9995   2.4672   8.8135   9.2268

     occupation numbers 
     1.0000   1.0000   1.0000   1.0000   1.0000   1.0000   1.0000   1.0000
     0.0000   0.0000   0.0000   0.0000

          k =-0.3125 0.4210 0.0000 (  3021 PWs)   bands (ev):

   -15.3371 -15.2617 -11.7695 -11.7157  -9.2846  -9.2482  -3.1369  -2.5490
     1.5646   2.0520   9.3170   9.7160

     occupation numbers 
     1.0000   1.0000   1.0000   1.0000   1.0000   1.0000   1.0000   1.0000
     0.0000   0.0000   0.0000   0.0000

          k = 0.5208 0.0601 0.0000 (  3021 PWs)   bands (ev):

   -15.3371 -15.2617 -11.7693 -11.7155  -9.2849  -9.2484  -3.1370  -2.5491
     1.5650   2.0523   9.3170   9.7159

     occupation numbers 
     1.0000   1.0000   1.0000   1.0000   1.0000   1.0000   1.0000   1.0000
     0.0000   0.0000   0.0000   0.0000

          k =-0.3333 0.4330 0.0000 (  3018 PWs)   bands (ev):

   -14.9689 -14.8955 -12.2025 -12.1465  -9.3819  -9.3451  -2.7898  -2.2204
     1.1620   1.6699   9.8278  10.1424

     occupation numbers 
     1.0000   1.0000   1.0000   1.0000   1.0000   1.0000   1.0000   1.0000
     0.0000   0.0000   0.0000   0.0000

          k = 0.5417 0.0722 0.0000 (  3018 PWs)   bands (ev):

   -14.9689 -14.8955 -12.2023 -12.1463  -9.3821  -9.3453  -2.7899  -2.2206
     1.1622   1.6702   9.8277  10.1422

     occupation numbers 
     1.0000   1.0000   1.0000   1.0000   1.0000   1.0000   1.0000   1.0000
     0.0000   0.0000   0.0000   0.0000

          k =-0.3542 0.4450 0.0000 (  3016 PWs)   bands (ev):

   -14.6045 -14.5328 -12.6157 -12.5578  -9.4498  -9.4127  -2.4851  -1.9344
     0.8168   1.3451  10.1154  10.3099

     occupation numbers 
     1.0000   1.0000   1.0000   1.0000   1.0000   1.0000   1.0000   1.0000
     0.0000   0.0000   0.0000   0.0000

          k = 0.5625 0.0842 0.0000 (  3016 PWs)   bands (ev):

   -14.6046 -14.5328 -12.6157 -12.5577  -9.4499  -9.4128  -2.4852  -1.9346
     0.8170   1.3453  10.1152  10.3097

     occupation numbers 
     1.0000   1.0000   1.0000   1.0000   1.0000   1.0000   1.0000   1.0000
     0.0000   0.0000   0.0000   0.0000

          k =-0.3750 0.4571 0.0000 (  3019 PWs)   bands (ev):

   -14.2789 -14.2083 -12.9717 -12.9124  -9.4900  -9.4528  -2.2644  -1.7294
     0.5715   1.1167  10.1051  10.4316

     occupation numbers 
     1.0000   1.0000   1.0000   1.0000   1.0000   1.0000   1.0000   1.0000
     0.0000   0.0000   0.0000   0.0000

          k = 0.5833 0.0962 0.0000 (  3019 PWs)   bands (ev):

   -14.2789 -14.2084 -12.9717 -12.9123  -9.4900  -9.4528  -2.2645  -1.7295
     0.5716   1.1168  10.1050  10.4315

     occupation numbers 
     1.0000   1.0000   1.0000   1.0000   1.0000   1.0000   1.0000   1.0000
     0.0000   0.0000   0.0000   0.0000

          k =-0.3958 0.4691 0.0000 (  3020 PWs)   bands (ev):

   -14.1191 -14.0488 -13.1418 -13.0821  -9.5033  -9.4660  -2.1813  -1.6530
     0.4802   1.0323  10.0994  10.4394

     occupation numbers 
     1.0000   1.0000   1.0000   1.0000   1.0000   1.0000   1.0000   1.0000
     0.0000   0.0000   0.0000   0.0000

          k = 0.4583-0.0000 0.0000 (  3043 PWs)   bands (ev):

   -16.3911 -16.3098 -10.4013 -10.3550  -8.8644  -8.8294  -4.2418  -3.6051
     2.9362   3.3644   7.8492   8.2741

     occupation numbers 
     1.0000   1.0000   1.0000   1.0000   1.0000   1.0000   1.0000   1.0000
     0.0000   0.0000   0.0000   0.0000

          k =-0.2500 0.4090 0.0000 (  3039 PWs)   bands (ev):

   -16.0658 -15.9864 -10.7450 -10.6969  -9.1461  -9.1098  -3.8845  -3.2618
     2.5004   2.9400   8.3013   8.7185

     occupation numbers 
     1.0000   1.0000   1.0000   1.0000   1.0000   1.0000   1.0000   1.0000
     0.0000   0.0000   0.0000   0.0000

          k = 0.4792 0.0120 0.0000 (  3039 PWs)   bands (ev):

   -16.0658 -15.9864 -10.7445 -10.6963  -9.1467  -9.1103  -3.8847  -3.2620
     2.5008   2.9405   8.3012   8.7184

     occupation numbers 
     1.0000   1.0000   1.0000   1.0000   1.0000   1.0000   1.0000   1.0000
     0.0000   0.0000   0.0000   0.0000

          k =-0.2708 0.4210 0.0000 (  3031 PWs)   bands (ev):

   -15.7257 -15.6483 -11.1190 -11.0688  -9.3752  -9.3379  -3.5190  -2.9113
     2.0662   2.5193   8.7749   9.1791

     occupation numbers 
     1.0000   1.0000   1.0000   1.0000   1.0000   1.0000   1.0000   1.0000
     0.0000   0.0000   0.0000   0.0000

          k = 0.5000 0.0241 0.0000 (  3031 PWs)   bands (ev):

   -15.7257 -15.6483 -11.1186 -11.0684  -9.3757  -9.3384  -3.5192  -2.9115
     2.0666   2.5197   8.7748   9.1791

     occupation numbers 
     1.0000   1.0000   1.0000   1.0000   1.0000   1.0000   1.0000   1.0000
     0.0000   0.0000   0.0000   0.0000

          k =-0.2917 0.4330 0.0000 (  3029 PWs)   bands (ev):

   -15.3727 -15.2972 -11.5162 -11.4637  -9.5543  -9.5162  -3.1510  -2.5595
     1.6396   2.1079   9.2674   9.6499

     occupation numbers 
     1.0000   1.0000   1.0000   1.0000   1.0000   1.0000   1.0000   1.0000
     0.0000   0.0000   0.0000   0.0000

          k = 0.5208 0.0361 0.0000 (  3029 PWs)   bands (ev):

   -15.3727 -15.2972 -11.5159 -11.4634  -9.5547  -9.5165  -3.1512  -2.5597
     1.6400   2.1083   9.2674   9.6498

     occupation numbers 
     1.0000   1.0000   1.0000   1.0000   1.0000   1.0000   1.0000   1.0000
     0.0000   0.0000   0.0000   0.0000

          k =-0.3125 0.4450 0.0000 (  3020 PWs)   bands (ev):

   -15.0099 -14.9364 -11.9251 -11.8704  -9.6892  -9.6505  -2.7903  -2.2161
     1.2310   1.7162   9.7736   9.9882

     occupation numbers 
     1.0000   1.0000   1.0000   1.0000   1.0000   1.0000   1.0000   1.0000
     0.0000   0.0000   0.0000   0.0000

          k = 0.5417 0.0481 0.0000 (  3020 PWs)   bands (ev):

   -15.0099 -14.9364 -11.9249 -11.8701  -9.6895  -9.6507  -2.7905  -2.2164
     1.2314   1.7166   9.7736   9.9880

     occupation numbers 
     1.0000   1.0000   1.0000   1.0000   1.0000   1.0000   1.0000   1.0000
     0.0000   0.0000   0.0000   0.0000

          k =-0.3333 0.4571 0.0000 (  3014 PWs)   bands (ev):

   -14.6442 -14.5725 -12.3314 -12.2746  -9.7858  -9.7466  -2.4545  -1.8984
     0.8587   1.3619   9.9512  10.2872

     occupation numbers 
     1.0000   1.0000   1.0000   1.0000   1.0000   1.0000   1.0000   1.0000
     0.0000   0.0000   0.0000   0.0000

          k = 0.5625 0.0601 0.0000 (  3014 PWs)   bands (ev):

   -14.6442 -14.5725 -12.3312 -12.2745  -9.7859  -9.7467  -2.4547  -1.8986
     0.8590   1.3622   9.9511  10.2871

     occupation numbers 
     1.0000   1.0000   1.0000   1.0000   1.0000   1.0000   1.0000   1.0000
     0.0000   0.0000   0.0000   0.0000

          k =-0.3542 0.4691 0.0000 (  3019 PWs)   bands (ev):

   -14.2940 -14.2239 -12.7115 -12.6530  -9.8480  -9.8086  -2.1761  -1.6372
     0.5555   1.0760   9.9173  10.7513

     occupation numbers 
     1.0000   1.0000   1.0000   1.0000   1.0000   1.0000   1.0000   1.0000
     0.0000   0.0000   0.0000   0.0000

          k = 0.5833 0.0722 0.0000 (  3019 PWs)   bands (ev):

   -14.2940 -14.2239 -12.7114 -12.6529  -9.8481  -9.8087  -2.1762  -1.6373
     0.5557   1.0762   9.9172  10.7509

     occupation numbers 
     1.0000   1.0000   1.0000   1.0000   1.0000   1.0000   1.0000   1.0000
     0.0000   0.0000   0.0000   0.0000

          k =-0.3750 0.4811 0.0000 (  3013 PWs)   bands (ev):

   -14.0261 -13.9568 -12.9951 -12.9356  -9.8785  -9.8390  -2.0089  -1.4820
     0.3759   0.9084   9.8973  10.9028

     occupation numbers 
     1.0000   1.0000   1.0000   1.0000   1.0000   1.0000   1.0000   1.0000
     0.0000   0.0000   0.0000   0.0000

          k = 0.6042 0.0842 0.0000 (  3013 PWs)   bands (ev):

   -14.0261 -13.9568 -12.9950 -12.9356  -9.8786  -9.8390  -2.0090  -1.4820
     0.3760   0.9085   9.8972  10.9026

     occupation numbers 
     1.0000   1.0000   1.0000   1.0000   1.0000   1.0000   1.0000   1.0000
     0.0000   0.0000   0.0000   0.0000

          k = 0.5000-0.0000 0.0000 (  3033 PWs)   bands (ev):

   -15.7350 -15.6575 -11.0336 -10.9837  -9.4634  -9.4255  -3.5251  -2.9166
     2.0897   2.5377   8.7618   9.1631

     occupation numbers 
     1.0000   1.0000   1.0000   1.0000   1.0000   1.0000   1.0000   1.0000
     0.0000   0.0000   0.0000   0.0000

          k =-0.2708 0.4450 0.0000 (  3025 PWs)   bands (ev):

   -15.3906 -15.3151 -11.3562 -11.3044  -9.7230  -9.6839  -3.1584  -2.5650
     1.6792   2.1374   9.2419   9.6163

     occupation numbers 
     1.0000   1.0000   1.0000   1.0000   1.0000   1.0000   1.0000   1.0000
     0.0000   0.0000   0.0000   0.0000

          k = 0.5208 0.0120 0.0000 (  3025 PWs)   bands (ev):

   -15.3906 -15.3150 -11.3557 -11.3040  -9.7235  -9.6844  -3.1586  -2.5653
     1.6797   2.1378   9.2418   9.6162

     occupation numbers 
     1.0000   1.0000   1.0000   1.0000   1.0000   1.0000   1.0000   1.0000
     0.0000   0.0000   0.0000   0.0000

          k =-0.2917 0.4571 0.0000 (  3019 PWs)   bands (ev):

   -15.0349 -14.9613 -11.7087 -11.6550  -9.9240  -9.8839  -2.7916  -2.2143
     1.2766   1.7470   9.7364   9.8834

     occupation numbers 
     1.0000   1.0000   1.0000   1.0000   1.0000   1.0000   1.0000   1.0000
     0.0000   0.0000   0.0000   0.0000

          k = 0.5417 0.0241 0.0000 (  3019 PWs)   bands (ev):

   -15.0349 -14.9614 -11.7084 -11.6546  -9.9244  -9.8843  -2.7918  -2.2146
     1.2770   1.7474   9.7364   9.8832

     occupation numbers 
     1.0000   1.0000   1.0000   1.0000   1.0000   1.0000   1.0000   1.0000
     0.0000   0.0000   0.0000   0.0000

          k =-0.3125 0.4691 0.0000 (  3010 PWs)   bands (ev):

   -14.6726 -14.6009 -12.0807 -12.0249 -10.0703 -10.0295  -2.4360  -1.8757
     0.8930   1.3774   9.8113  10.2435

     occupation numbers 
     1.0000   1.0000   1.0000   1.0000   1.0000   1.0000   1.0000   1.0000
     0.0000   0.0000   0.0000   0.0000

          k = 0.5625 0.0361 0.0000 (  3010 PWs)   bands (ev):

   -14.6726 -14.6009 -12.0805 -12.0247 -10.0706 -10.0298  -2.4363  -1.8759
     0.8934   1.3778   9.8111  10.2435

     occupation numbers 
     1.0000   1.0000   1.0000   1.0000   1.0000   1.0000   1.0000   1.0000
     0.0000   0.0000   0.0000   0.0000

          k =-0.3333 0.4811 0.0000 (  3013 PWs)   bands (ev):

   -14.3139 -14.2440 -12.4532 -12.3956 -10.1690 -10.1278  -2.1139  -1.5706
     0.5508   1.0502   9.7470  10.7432

     occupation numbers 
     1.0000   1.0000   1.0000   1.0000   1.0000   1.0000   1.0000   1.0000
     0.0000   0.0000   0.0000   0.0000

          k = 0.5833 0.0481 0.0000 (  3013 PWs)   bands (ev):

   -14.3139 -14.2440 -12.4530 -12.3954 -10.1692 -10.1280  -2.1141  -1.5708
     0.5511   1.0505   9.7469  10.7430

     occupation numbers 
     1.0000   1.0000   1.0000   1.0000   1.0000   1.0000   1.0000   1.0000
     0.0000   0.0000   0.0000   0.0000

          k =-0.3542 0.4932 0.0000 (  3011 PWs)   bands (ev):

   -13.9913 -13.9228 -12.7868 -12.7277 -10.2259 -10.1844  -1.8693  -1.3409
     0.2940   0.8072   9.7033  11.0493

     occupation numbers 
     1.0000   1.0000   1.0000   1.0000   1.0000   1.0000   1.0000   1.0000
     0.0000   0.0000   0.0000   0.0000

          k = 0.6042 0.0601 0.0000 (  3011 PWs)   bands (ev):

   -13.9914 -13.9228 -12.7867 -12.7276 -10.2260 -10.1845  -1.8695  -1.3411
     0.2941   0.8074   9.7032  11.0493

     occupation numbers 
     1.0000   1.0000   1.0000   1.0000   1.0000   1.0000   1.0000   1.0000
     0.0000   0.0000   0.0000   0.0000

          k =-0.3750 0.5052 0.0000 (  3008 PWs)   bands (ev):

   -13.8303 -13.7621 -12.9520 -12.8925 -10.2445 -10.2029  -1.7731  -1.2513
     0.1937   0.7131   9.6880  11.1186

     occupation numbers 
     1.0000   1.0000   1.0000   1.0000   1.0000   1.0000   1.0000   1.0000
     0.0000   0.0000   0.0000   0.0000

          k = 0.5417-0.0000 0.0000 (  3013 PWs)   bands (ev):

   -15.0434 -14.9698 -11.6213 -11.5679 -10.0177  -9.9771  -2.7924  -2.2142
     1.2930   1.7582   9.7235   9.8473

     occupation numbers 
     1.0000   1.0000   1.0000   1.0000   1.0000   1.0000   1.0000   1.0000
     0.0000   0.0000   0.0000   0.0000

          k =-0.2917 0.4811 0.0000 (  3009 PWs)   bands (ev):

   -14.6873 -14.6156 -11.9208 -11.8656 -10.2472 -10.2056  -2.4274  -1.8647
     0.9122   1.3865   9.7379  10.2196

     occupation numbers 
     1.0000   1.0000   1.0000   1.0000   1.0000   1.0000   1.0000   1.0000
     0.0000   0.0000   0.0000   0.0000

          k = 0.5625 0.0120 0.0000 (  3009 PWs)   bands (ev):

   -14.6873 -14.6156 -11.9203 -11.8651 -10.2476 -10.2060  -2.4276  -1.8650
     0.9127   1.3870   9.7377  10.2196

     occupation numbers 
     1.0000   1.0000   1.0000   1.0000   1.0000   1.0000   1.0000   1.0000
     0.0000   0.0000   0.0000   0.0000

          k =-0.3125 0.4932 0.0000 (  3012 PWs)   bands (ev):

   -14.3286 -14.2589 -12.2465 -12.1894 -10.4114 -10.3691  -2.0772  -1.5305
     0.5510   1.0362   9.6387  10.7127

     occupation numbers 
     1.0000   1.0000   1.0000   1.0000   1.0000   1.0000   1.0000   1.0000
     0.0000   0.0000   0.0000   0.0000

          k = 0.5833 0.0241 0.0000 (  3012 PWs)   bands (ev):

   -14.3287 -14.2589 -12.2461 -12.1891 -10.4117 -10.3694  -2.0775  -1.5308
     0.5514   1.0366   9.6385  10.7126

     occupation numbers 
     1.0000   1.0000   1.0000   1.0000   1.0000   1.0000   1.0000   1.0000
     0.0000   0.0000   0.0000   0.0000

          k =-0.3333 0.5052 0.0000 (  3007 PWs)   bands (ev):

   -13.9836 -13.9155 -12.5760 -12.5173 -10.5153 -10.4724  -1.7703  -1.2390
     0.2369   0.7342   9.5649  10.9689

     occupation numbers 
     1.0000   1.0000   1.0000   1.0000   1.0000   1.0000   1.0000   1.0000
     0.0000   0.0000   0.0000   0.0000

          k = 0.6042 0.0361 0.0000 (  3007 PWs)   bands (ev):

   -13.9837 -13.9156 -12.5757 -12.5171 -10.5154 -10.4726  -1.7706  -1.2393
     0.2372   0.7345   9.5648  10.9689

     occupation numbers 
     1.0000   1.0000   1.0000   1.0000   1.0000   1.0000   1.0000   1.0000
     0.0000   0.0000   0.0000   0.0000

          k =-0.3542 0.5172 0.0000 (  3008 PWs)   bands (ev):

   -13.7134 -13.6463 -12.8406 -12.7809 -10.5653 -10.5221  -1.5708  -1.0510
     0.0339   0.5410   9.5259  11.0557

     occupation numbers 
     1.0000   1.0000   1.0000   1.0000   1.0000   1.0000   1.0000   1.0000
     0.0000   0.0000   0.0000   0.0000

          k = 0.6250 0.0481 0.0000 (  3008 PWs)   bands (ev):

   -13.7134 -13.6464 -12.8405 -12.7808 -10.5653 -10.5222  -1.5709  -1.0511
     0.0340   0.5411   9.5259  11.0557

     occupation numbers 
     1.0000   1.0000   1.0000   1.0000   1.0000   1.0000   1.0000   1.0000
     0.0000   0.0000   0.0000   0.0000

          k = 0.5833-0.0000 0.0000 (  3011 PWs)   bands (ev):

   -14.3340 -14.2643 -12.1622 -12.1054 -10.5073 -10.4646  -2.0654  -1.5174
     0.5520   1.0323   9.6015  10.7014

     occupation numbers 
     1.0000   1.0000   1.0000   1.0000   1.0000   1.0000   1.0000   1.0000
     0.0000   0.0000   0.0000   0.0000

          k =-0.3125 0.5172 0.0000 (  3004 PWs)   bands (ev):

   -13.9836 -13.9157 -12.4350 -12.3766 -10.6919 -10.6484  -1.7188  -1.1852
     0.2073   0.6955   9.4933  10.9244

     occupation numbers 
     1.0000   1.0000   1.0000   1.0000   1.0000   1.0000   1.0000   1.0000
     0.0000   0.0000   0.0000   0.0000

          k = 0.6042 0.0120 0.0000 (  3004 PWs)   bands (ev):

   -13.9837 -13.9158 -12.4347 -12.3762 -10.6922 -10.6487  -1.7191  -1.1855
     0.2078   0.6960   9.4932  10.9243

     occupation numbers 
     1.0000   1.0000   1.0000   1.0000   1.0000   1.0000   1.0000   1.0000
     0.0000   0.0000   0.0000   0.0000

          k =-0.3333 0.5292 0.0000 (  3000 PWs)   bands (ev):

   -13.6620 -13.5956 -12.7128 -12.6530 -10.8005 -10.7565  -1.4261  -0.9056
    -0.0836   0.4136   9.4244  11.0026

     occupation numbers 
     1.0000   1.0000   1.0000   1.0000   1.0000   1.0000   1.0000   1.0000
     0.0000   0.0000   0.0000   0.0000

          k = 0.6250 0.0241 0.0000 (  3000 PWs)   bands (ev):

   -13.6621 -13.5957 -12.7126 -12.6527 -10.8006 -10.7566  -1.4264  -0.9059
    -0.0833   0.4140   9.4243  11.0025

     occupation numbers 
     1.0000   1.0000   1.0000   1.0000   1.0000   1.0000   1.0000   1.0000
     0.0000   0.0000   0.0000   0.0000

          k =-0.3542 0.5413 0.0000 (  3006 PWs)   bands (ev):

   -13.4896 -13.4239 -12.8714 -12.8109 -10.8360 -10.7919  -1.2936  -0.7798
    -0.2155   0.2872   9.4007  11.0222

     occupation numbers 
     1.0000   1.0000   1.0000   1.0000   1.0000   1.0000   1.0000   1.0000
     0.0000   0.0000   0.0000   0.0000

          k = 0.6250-0.0000 0.0000 (  3009 PWs)   bands (ev):

   -13.6487 -13.5826 -12.6546 -12.5945 -10.8909 -10.8467  -1.3721  -0.8506
    -0.1283   0.3650   9.3897  10.9828

     occupation numbers 
     1.0000   1.0000   1.0000   1.0000   1.0000   1.0000   1.0000   1.0000
     0.0000   0.0000   0.0000   0.0000

          k =-0.3333 0.5533 0.0000 (  3013 PWs)   bands (ev):

   -13.3615 -13.2969 -12.8817 -12.8204 -10.9930 -10.9484  -1.0836  -0.5721
    -0.4110   0.0886   9.3362  10.9961

     occupation numbers 
     1.0000   1.0000   1.0000   1.0000   1.0000   1.0000   1.0000   1.0000
     0.0000   0.0000   0.0000   0.0000

          k = 0.6458 0.0120 0.0000 (  3013 PWs)   bands (ev):

   -13.3617 -13.2971 -12.8815 -12.8201 -10.9931 -10.9485  -1.0838  -0.5724
    -0.4106   0.0890   9.3362  10.9960

     occupation numbers 
     1.0000   1.0000   1.0000   1.0000   1.0000   1.0000   1.0000   1.0000
     0.0000   0.0000   0.0000   0.0000

     the Fermi energy is    -0.5326 ev

     Writing output data file gra.spin.save

     init_run     :      2.30s CPU      2.36s WALL (       1 calls)
     electrons    :    950.92s CPU    955.15s WALL (       1 calls)

     Called by init_run:
     wfcinit      :      0.00s CPU      0.00s WALL (       1 calls)
     potinit      :      0.67s CPU      0.70s WALL (       1 calls)

     Called by electrons:
     c_bands      :    950.84s CPU    955.06s WALL (       1 calls)
     v_of_rho     :      0.59s CPU      0.61s WALL (       1 calls)
     v_h          :      0.01s CPU      0.01s WALL (       1 calls)
     v_xc         :      0.58s CPU      0.60s WALL (       1 calls)
     newd         :      0.32s CPU      0.32s WALL (       1 calls)

     Called by c_bands:
     init_us_2    :      1.28s CPU      1.29s WALL (    1202 calls)
     cegterg      :    892.10s CPU    896.05s WALL (    2886 calls)

     Called by sum_band:

     Called by *egterg:
     h_psi        :    495.17s CPU    498.37s WALL (   51250 calls)
     s_psi        :     73.18s CPU     73.37s WALL (   51250 calls)
     g_psi        :      4.95s CPU      4.97s WALL (   47162 calls)
     cdiaghg      :     33.43s CPU     33.58s WALL (   48364 calls)
     cegterg:over :    131.99s CPU    132.28s WALL (   47162 calls)
     cegterg:upda :     96.07s CPU     96.28s WALL (   47162 calls)
     cegterg:last :     78.32s CPU     78.40s WALL (    7733 calls)

     Called by h_psi:
     h_psi:vloc   :    339.03s CPU    341.60s WALL (   51250 calls)
     h_psi:vnl    :    153.62s CPU    154.24s WALL (   51250 calls)
     add_vuspsi   :     73.52s CPU     73.72s WALL (   51250 calls)

     General routines
     calbec       :     79.79s CPU     80.24s WALL (   51250 calls)
     fft          :      0.21s CPU      0.22s WALL (      22 calls)
     ffts         :      0.00s CPU      0.00s WALL (       2 calls)
     fftw         :    248.49s CPU    250.41s WALL (  573188 calls)
     interpolate  :      0.02s CPU      0.02s WALL (       2 calls)

     Parallel routines
     fft_scatter  :     39.70s CPU     40.01s WALL (  573212 calls)

     PWSCF        : 15m59.94s CPU    16m 5.25s WALL


   This run was terminated on:  17:50:37  30Apr2020            

=------------------------------------------------------------------------------=
   JOB DONE.
=------------------------------------------------------------------------------=
