
     Program PWSCF v.5.1 starts on 30Apr2020 at 17:22:57 

     This program is part of the open-source Quantum ESPRESSO suite
     for quantum simulation of materials; please cite
         "P. Giannozzi et al., J. Phys.:Condens. Matter 21 395502 (2009);
          URL http://www.quantum-espresso.org", 
     in publications or presentations arising from this work. More details at
     http://www.quantum-espresso.org/quote

     Parallel version (MPI), running on     1 processors
     Waiting for input...
     Reading input from standard input

     Current dimensions of program PWSCF are:
     Max number of different atomic species (ntypx) = 10
     Max number of k-points (npk) =  40000
     Max angular momentum in pseudopotentials (lmaxx) =  3

     IMPORTANT: XC functional enforced from input :
     Exchange-correlation      = PBE ( 1  4  3  4 0)
     Any further DFT definition will be discarded
     Please, verify this is what you really want

               file C.pbe-rrkjus.UPF: wavefunction(s)  2S 2P renormalized

     Subspace diagonalization in iterative solution of the eigenvalue problem:
     a serial algorithm will be used


     G-vector sticks info
     --------------------
     sticks:   dense  smooth     PW     G-vecs:    dense   smooth      PW
     Sum         595     241     85                96043    24369    4587

     Generating pointlists ...
     new r_m :   0.2381 (alat units)  1.1104 (a.u.) for type    1

     Title: 
     graphene                                                                   


     bravais-lattice index     =           12
     lattice parameter (alat)  =       4.6627  a.u.
     unit-cell volume          =     711.6007 (a.u.)^3
     number of atoms/cell      =            4
     number of atomic types    =            1
     number of electrons       =        16.00
     number of Kohn-Sham states=           16
     kinetic-energy cutoff     =      40.0000  Ry
     charge density cutoff     =     400.0000  Ry
     convergence threshold     =      1.0E-10
     mixing beta               =       0.3000
     number of iterations used =            8  plain     mixing
     Exchange-correlation      = PBE ( 1  4  3  4 0)

     celldm(1)=   4.662710  celldm(2)=   1.000000  celldm(3)=   8.105698
     celldm(4)=  -0.500000  celldm(5)=   0.000000  celldm(6)=   0.000000

     crystal axes: (cart. coord. in units of alat)
               a(1) = (   1.000000   0.000000   0.000000 )  
               a(2) = (  -0.500000   0.866025   0.000000 )  
               a(3) = (   0.000000   0.000000   8.105698 )  

     reciprocal axes: (cart. coord. in units 2 pi/alat)
               b(1) = (  1.000000  0.577350 -0.000000 )  
               b(2) = (  0.000000  1.154701  0.000000 )  
               b(3) = (  0.000000 -0.000000  0.123370 )  


     PseudoPot. # 1 for C  read from file:
     ../pseudo/C.pbe-rrkjus.UPF
     MD5 check sum: 00fb224312de0c5b6853bd333518df6f
     Pseudo is Ultrasoft, Zval =  4.0
     Generated by new atomic code, or converted to UPF format
     Using radial grid of  627 points,  4 beta functions with: 
                l(1) =   0
                l(2) =   0
                l(3) =   1
                l(4) =   1
     Q(r) pseudized with 0 coefficients 


     atomic species   valence    mass     pseudopotential
        C              4.00    12.01100     C ( 1.00)

     Starting magnetic structure 
     atomic species   magnetization
        C            0.500

      2 Sym. Ops. (no inversion) found
          (note:  6 additional sym.ops. were found but ignored
           their fractional translations are incommensurate with FFT grid)

                                    s                        frac. trans.

      isym =  1     identity                                     

 cryst.   s( 1) = (     1          0          0      )
                  (     0          1          0      )
                  (     0          0          1      )

 cart.    s( 1) = (  1.0000000  0.0000000  0.0000000 )
                  (  0.0000000  1.0000000  0.0000000 )
                  (  0.0000000  0.0000000  1.0000000 )


      isym =  2     inv. 180 deg rotation - cart. axis [1,0,0]   

 cryst.   s( 2) = (    -1          0          0      )
                  (     1          1          0      )
                  (     0          0          1      )

 cart.    s( 2) = ( -1.0000000  0.0000000  0.0000000 )
                  (  0.0000000  1.0000000  0.0000000 )
                  (  0.0000000  0.0000000  1.0000000 )


     point group C_s (m)    
     there are  2 classes
     the character table:

       E     s    
A'     1.00  1.00
A''    1.00 -1.00

     the symmetry operations in each class:
     E        1
     s        2

   Cartesian axes

     site n.     atom                  positions (alat units)
         1           C   tau(   1) = (   0.0000000   0.0000000   2.0264246  )
         2           C   tau(   2) = (   0.0000000   0.5773284   2.0264246  )
         3           C   tau(   3) = (   0.0000000   0.0000000   3.4530275  )
         4           C   tau(   4) = (   0.0000000   0.5773284   3.4530275  )

   Crystallographic axes

     site n.     atom                  positions (cryst. coord.)
         1           C   tau(   1) = (  0.0000000  0.0000000  0.2500000  )
         2           C   tau(   2) = (  0.3333207  0.6666414  0.2500000  )
         3           C   tau(   3) = (  0.0000000  0.0000000  0.4260000  )
         4           C   tau(   4) = (  0.3333207  0.6666414  0.4260000  )

     number of k points=   314  Marzari-Vanderbilt smearing, width (Ry)=  0.0001
                       cart. coord. in units 2pi/alat
        k(    1) = (   0.0000000   0.0000000   0.0000000), wk =   0.0017361
        k(    2) = (   0.0000000   0.0481125   0.0000000), wk =   0.0034722
        k(    3) = (   0.0000000   0.0962250   0.0000000), wk =   0.0034722
        k(    4) = (   0.0000000   0.1443376   0.0000000), wk =   0.0034722
        k(    5) = (   0.0000000   0.1924501   0.0000000), wk =   0.0034722
        k(    6) = (   0.0000000   0.2405626   0.0000000), wk =   0.0034722
        k(    7) = (   0.0000000   0.2886751   0.0000000), wk =   0.0034722
        k(    8) = (   0.0000000   0.3367877   0.0000000), wk =   0.0034722
        k(    9) = (   0.0000000   0.3849002   0.0000000), wk =   0.0034722
        k(   10) = (   0.0000000   0.4330127   0.0000000), wk =   0.0034722
        k(   11) = (   0.0000000   0.4811252   0.0000000), wk =   0.0034722
        k(   12) = (   0.0000000   0.5292377   0.0000000), wk =   0.0034722
        k(   13) = (   0.0000000  -0.5773503   0.0000000), wk =   0.0017361
        k(   14) = (   0.0416667   0.0721688   0.0000000), wk =   0.0069444
        k(   15) = (   0.0416667   0.1202813   0.0000000), wk =   0.0069444
        k(   16) = (   0.0416667   0.1683938   0.0000000), wk =   0.0069444
        k(   17) = (   0.0416667   0.2165064   0.0000000), wk =   0.0069444
        k(   18) = (   0.0416667   0.2646189   0.0000000), wk =   0.0069444
        k(   19) = (   0.0416667   0.3127314   0.0000000), wk =   0.0069444
        k(   20) = (   0.0416667   0.3608439   0.0000000), wk =   0.0069444
        k(   21) = (   0.0416667   0.4089564   0.0000000), wk =   0.0069444
        k(   22) = (   0.0416667   0.4570690   0.0000000), wk =   0.0069444
        k(   23) = (   0.0416667   0.5051815   0.0000000), wk =   0.0069444
        k(   24) = (   0.0416667   0.5532940   0.0000000), wk =   0.0069444
        k(   25) = (   0.0833333   0.1443376   0.0000000), wk =   0.0069444
        k(   26) = (   0.0833333   0.1924501   0.0000000), wk =   0.0069444
        k(   27) = (   0.0833333   0.2405626   0.0000000), wk =   0.0069444
        k(   28) = (   0.0833333   0.2886751   0.0000000), wk =   0.0069444
        k(   29) = (   0.0833333   0.3367877   0.0000000), wk =   0.0069444
        k(   30) = (   0.0833333   0.3849002   0.0000000), wk =   0.0069444
        k(   31) = (   0.0833333   0.4330127   0.0000000), wk =   0.0069444
        k(   32) = (   0.0833333   0.4811252   0.0000000), wk =   0.0069444
        k(   33) = (   0.0833333   0.5292377   0.0000000), wk =   0.0069444
        k(   34) = (   0.0833333   0.5773503   0.0000000), wk =   0.0034722
        k(   35) = (   0.1250000   0.2165064   0.0000000), wk =   0.0069444
        k(   36) = (   0.1250000   0.2646189   0.0000000), wk =   0.0069444
        k(   37) = (   0.1250000   0.3127314   0.0000000), wk =   0.0069444
        k(   38) = (   0.1250000   0.3608439   0.0000000), wk =   0.0069444
        k(   39) = (   0.1250000   0.4089564   0.0000000), wk =   0.0069444
        k(   40) = (   0.1250000   0.4570690   0.0000000), wk =   0.0069444
        k(   41) = (   0.1250000   0.5051815   0.0000000), wk =   0.0069444
        k(   42) = (   0.1250000   0.5532940   0.0000000), wk =   0.0069444
        k(   43) = (   0.1666667   0.2886751   0.0000000), wk =   0.0069444
        k(   44) = (   0.1666667   0.3367877   0.0000000), wk =   0.0069444
        k(   45) = (   0.1666667   0.3849002   0.0000000), wk =   0.0069444
        k(   46) = (   0.1666667   0.4330127   0.0000000), wk =   0.0069444
        k(   47) = (   0.1666667   0.4811252   0.0000000), wk =   0.0069444
        k(   48) = (   0.1666667   0.5292377   0.0000000), wk =   0.0069444
        k(   49) = (   0.1666667   0.5773503   0.0000000), wk =   0.0034722
        k(   50) = (   0.2083333   0.3608439   0.0000000), wk =   0.0069444
        k(   51) = (   0.2083333   0.4089564   0.0000000), wk =   0.0069444
        k(   52) = (   0.2083333   0.4570690   0.0000000), wk =   0.0069444
        k(   53) = (   0.2083333   0.5051815   0.0000000), wk =   0.0069444
        k(   54) = (   0.2083333   0.5532940   0.0000000), wk =   0.0069444
        k(   55) = (   0.2500000   0.4330127   0.0000000), wk =   0.0069444
        k(   56) = (   0.2500000   0.4811252   0.0000000), wk =   0.0069444
        k(   57) = (   0.2500000   0.5292377   0.0000000), wk =   0.0069444
        k(   58) = (   0.2500000   0.5773503   0.0000000), wk =   0.0034722
        k(   59) = (   0.2916667   0.5051815   0.0000000), wk =   0.0069444
        k(   60) = (   0.2916667   0.5532940   0.0000000), wk =   0.0069444
        k(   61) = (   0.3333333   0.5773503   0.0000000), wk =   0.0034722
        k(   62) = (  -0.0416667   0.0240563   0.0000000), wk =   0.0069444
        k(   63) = (  -0.0833333   0.0481125   0.0000000), wk =   0.0069444
        k(   64) = (  -0.1250000   0.0721688   0.0000000), wk =   0.0069444
        k(   65) = (  -0.1666667   0.0962250   0.0000000), wk =   0.0069444
        k(   66) = (  -0.2083333   0.1202813   0.0000000), wk =   0.0069444
        k(   67) = (  -0.2500000   0.1443376   0.0000000), wk =   0.0069444
        k(   68) = (  -0.2916667   0.1683938   0.0000000), wk =   0.0069444
        k(   69) = (  -0.3333333   0.1924501   0.0000000), wk =   0.0069444
        k(   70) = (  -0.3750000   0.2165064   0.0000000), wk =   0.0069444
        k(   71) = (  -0.4166667   0.2405626   0.0000000), wk =   0.0069444
        k(   72) = (  -0.4583333   0.2646189   0.0000000), wk =   0.0069444
        k(   73) = (   0.5000000  -0.2886751   0.0000000), wk =   0.0034722
        k(   74) = (   0.0833333  -0.0000000   0.0000000), wk =   0.0034722
        k(   75) = (  -0.0833333   0.0962250   0.0000000), wk =   0.0069444
        k(   76) = (   0.1250000   0.0240563   0.0000000), wk =   0.0069444
        k(   77) = (  -0.1250000   0.1202813   0.0000000), wk =   0.0069444
        k(   78) = (   0.1666667   0.0481125   0.0000000), wk =   0.0069444
        k(   79) = (  -0.1666667   0.1443376   0.0000000), wk =   0.0069444
        k(   80) = (   0.2083333   0.0721688   0.0000000), wk =   0.0069444
        k(   81) = (  -0.2083333   0.1683938   0.0000000), wk =   0.0069444
        k(   82) = (   0.2500000   0.0962250   0.0000000), wk =   0.0069444
        k(   83) = (  -0.2500000   0.1924501   0.0000000), wk =   0.0069444
        k(   84) = (   0.2916667   0.1202813   0.0000000), wk =   0.0069444
        k(   85) = (  -0.2916667   0.2165064   0.0000000), wk =   0.0069444
        k(   86) = (   0.3333333   0.1443376   0.0000000), wk =   0.0069444
        k(   87) = (  -0.3333333   0.2405626   0.0000000), wk =   0.0069444
        k(   88) = (   0.3750000   0.1683938   0.0000000), wk =   0.0069444
        k(   89) = (  -0.3750000   0.2646189   0.0000000), wk =   0.0069444
        k(   90) = (   0.4166667   0.1924501   0.0000000), wk =   0.0069444
        k(   91) = (  -0.4166667   0.2886751   0.0000000), wk =   0.0069444
        k(   92) = (   0.4583333   0.2165064   0.0000000), wk =   0.0069444
        k(   93) = (  -0.4583333   0.3127314   0.0000000), wk =   0.0069444
        k(   94) = (   0.5000000   0.2405626   0.0000000), wk =   0.0069444
        k(   95) = (   0.1666667  -0.0000000   0.0000000), wk =   0.0034722
        k(   96) = (  -0.1250000   0.1683938   0.0000000), wk =   0.0069444
        k(   97) = (   0.2083333   0.0240563   0.0000000), wk =   0.0069444
        k(   98) = (  -0.1666667   0.1924501   0.0000000), wk =   0.0069444
        k(   99) = (   0.2500000   0.0481125   0.0000000), wk =   0.0069444
        k(  100) = (  -0.2083333   0.2165064   0.0000000), wk =   0.0069444
        k(  101) = (   0.2916667   0.0721688   0.0000000), wk =   0.0069444
        k(  102) = (  -0.2500000   0.2405626   0.0000000), wk =   0.0069444
        k(  103) = (   0.3333333   0.0962250   0.0000000), wk =   0.0069444
        k(  104) = (  -0.2916667   0.2646189   0.0000000), wk =   0.0069444
        k(  105) = (   0.3750000   0.1202813   0.0000000), wk =   0.0069444
        k(  106) = (  -0.3333333   0.2886751   0.0000000), wk =   0.0069444
        k(  107) = (   0.4166667   0.1443376   0.0000000), wk =   0.0069444
        k(  108) = (  -0.3750000   0.3127314   0.0000000), wk =   0.0069444
        k(  109) = (   0.4583333   0.1683938   0.0000000), wk =   0.0069444
        k(  110) = (  -0.4166667   0.3367877   0.0000000), wk =   0.0069444
        k(  111) = (   0.5000000   0.1924501   0.0000000), wk =   0.0069444
        k(  112) = (  -0.4583333   0.3608439   0.0000000), wk =   0.0069444
        k(  113) = (   0.2500000   0.0000000   0.0000000), wk =   0.0034722
        k(  114) = (  -0.1666667   0.2405626   0.0000000), wk =   0.0069444
        k(  115) = (   0.2916667   0.0240563   0.0000000), wk =   0.0069444
        k(  116) = (  -0.2083333   0.2646189   0.0000000), wk =   0.0069444
        k(  117) = (   0.3333333   0.0481125   0.0000000), wk =   0.0069444
        k(  118) = (  -0.2500000   0.2886751   0.0000000), wk =   0.0069444
        k(  119) = (   0.3750000   0.0721688   0.0000000), wk =   0.0069444
        k(  120) = (  -0.2916667   0.3127314   0.0000000), wk =   0.0069444
        k(  121) = (   0.4166667   0.0962250   0.0000000), wk =   0.0069444
        k(  122) = (  -0.3333333   0.3367877   0.0000000), wk =   0.0069444
        k(  123) = (   0.4583333   0.1202813   0.0000000), wk =   0.0069444
        k(  124) = (  -0.3750000   0.3608439   0.0000000), wk =   0.0069444
        k(  125) = (   0.5000000   0.1443376   0.0000000), wk =   0.0069444
        k(  126) = (  -0.4166667   0.3849002   0.0000000), wk =   0.0069444
        k(  127) = (   0.5416667   0.1683938   0.0000000), wk =   0.0069444
        k(  128) = (   0.3333333  -0.0000000   0.0000000), wk =   0.0034722
        k(  129) = (  -0.2083333   0.3127314   0.0000000), wk =   0.0069444
        k(  130) = (   0.3750000   0.0240563   0.0000000), wk =   0.0069444
        k(  131) = (  -0.2500000   0.3367877   0.0000000), wk =   0.0069444
        k(  132) = (   0.4166667   0.0481125   0.0000000), wk =   0.0069444
        k(  133) = (  -0.2916667   0.3608439   0.0000000), wk =   0.0069444
        k(  134) = (   0.4583333   0.0721688   0.0000000), wk =   0.0069444
        k(  135) = (  -0.3333333   0.3849002   0.0000000), wk =   0.0069444
        k(  136) = (   0.5000000   0.0962250   0.0000000), wk =   0.0069444
        k(  137) = (  -0.3750000   0.4089564   0.0000000), wk =   0.0069444
        k(  138) = (   0.5416667   0.1202813   0.0000000), wk =   0.0069444
        k(  139) = (  -0.4166667   0.4330127   0.0000000), wk =   0.0069444
        k(  140) = (   0.4166667   0.0000000   0.0000000), wk =   0.0034722
        k(  141) = (  -0.2500000   0.3849002   0.0000000), wk =   0.0069444
        k(  142) = (   0.4583333   0.0240563   0.0000000), wk =   0.0069444
        k(  143) = (  -0.2916667   0.4089564   0.0000000), wk =   0.0069444
        k(  144) = (   0.5000000   0.0481125   0.0000000), wk =   0.0069444
        k(  145) = (  -0.3333333   0.4330127   0.0000000), wk =   0.0069444
        k(  146) = (   0.5416667   0.0721688   0.0000000), wk =   0.0069444
        k(  147) = (  -0.3750000   0.4570690   0.0000000), wk =   0.0069444
        k(  148) = (   0.5833333   0.0962250   0.0000000), wk =   0.0069444
        k(  149) = (   0.5000000   0.0000000   0.0000000), wk =   0.0034722
        k(  150) = (  -0.2916667   0.4570690   0.0000000), wk =   0.0069444
        k(  151) = (   0.5416667   0.0240563   0.0000000), wk =   0.0069444
        k(  152) = (  -0.3333333   0.4811252   0.0000000), wk =   0.0069444
        k(  153) = (   0.5833333   0.0481125   0.0000000), wk =   0.0069444
        k(  154) = (  -0.3750000   0.5051815   0.0000000), wk =   0.0069444
        k(  155) = (   0.5833333   0.0000000   0.0000000), wk =   0.0034722
        k(  156) = (  -0.3333333   0.5292377   0.0000000), wk =   0.0069444
        k(  157) = (   0.6250000   0.0240563   0.0000000), wk =   0.0069444
        k(  158) = (   0.0000000   0.0000000   0.0000000), wk =   0.0017361
        k(  159) = (   0.0000000   0.0481125   0.0000000), wk =   0.0034722
        k(  160) = (   0.0000000   0.0962250   0.0000000), wk =   0.0034722
        k(  161) = (   0.0000000   0.1443376   0.0000000), wk =   0.0034722
        k(  162) = (   0.0000000   0.1924501   0.0000000), wk =   0.0034722
        k(  163) = (   0.0000000   0.2405626   0.0000000), wk =   0.0034722
        k(  164) = (   0.0000000   0.2886751   0.0000000), wk =   0.0034722
        k(  165) = (   0.0000000   0.3367877   0.0000000), wk =   0.0034722
        k(  166) = (   0.0000000   0.3849002   0.0000000), wk =   0.0034722
        k(  167) = (   0.0000000   0.4330127   0.0000000), wk =   0.0034722
        k(  168) = (   0.0000000   0.4811252   0.0000000), wk =   0.0034722
        k(  169) = (   0.0000000   0.5292377   0.0000000), wk =   0.0034722
        k(  170) = (   0.0000000  -0.5773503   0.0000000), wk =   0.0017361
        k(  171) = (   0.0416667   0.0721688   0.0000000), wk =   0.0069444
        k(  172) = (   0.0416667   0.1202813   0.0000000), wk =   0.0069444
        k(  173) = (   0.0416667   0.1683938   0.0000000), wk =   0.0069444
        k(  174) = (   0.0416667   0.2165064   0.0000000), wk =   0.0069444
        k(  175) = (   0.0416667   0.2646189   0.0000000), wk =   0.0069444
        k(  176) = (   0.0416667   0.3127314   0.0000000), wk =   0.0069444
        k(  177) = (   0.0416667   0.3608439   0.0000000), wk =   0.0069444
        k(  178) = (   0.0416667   0.4089564   0.0000000), wk =   0.0069444
        k(  179) = (   0.0416667   0.4570690   0.0000000), wk =   0.0069444
        k(  180) = (   0.0416667   0.5051815   0.0000000), wk =   0.0069444
        k(  181) = (   0.0416667   0.5532940   0.0000000), wk =   0.0069444
        k(  182) = (   0.0833333   0.1443376   0.0000000), wk =   0.0069444
        k(  183) = (   0.0833333   0.1924501   0.0000000), wk =   0.0069444
        k(  184) = (   0.0833333   0.2405626   0.0000000), wk =   0.0069444
        k(  185) = (   0.0833333   0.2886751   0.0000000), wk =   0.0069444
        k(  186) = (   0.0833333   0.3367877   0.0000000), wk =   0.0069444
        k(  187) = (   0.0833333   0.3849002   0.0000000), wk =   0.0069444
        k(  188) = (   0.0833333   0.4330127   0.0000000), wk =   0.0069444
        k(  189) = (   0.0833333   0.4811252   0.0000000), wk =   0.0069444
        k(  190) = (   0.0833333   0.5292377   0.0000000), wk =   0.0069444
        k(  191) = (   0.0833333   0.5773503   0.0000000), wk =   0.0034722
        k(  192) = (   0.1250000   0.2165064   0.0000000), wk =   0.0069444
        k(  193) = (   0.1250000   0.2646189   0.0000000), wk =   0.0069444
        k(  194) = (   0.1250000   0.3127314   0.0000000), wk =   0.0069444
        k(  195) = (   0.1250000   0.3608439   0.0000000), wk =   0.0069444
        k(  196) = (   0.1250000   0.4089564   0.0000000), wk =   0.0069444
        k(  197) = (   0.1250000   0.4570690   0.0000000), wk =   0.0069444
        k(  198) = (   0.1250000   0.5051815   0.0000000), wk =   0.0069444
        k(  199) = (   0.1250000   0.5532940   0.0000000), wk =   0.0069444
        k(  200) = (   0.1666667   0.2886751   0.0000000), wk =   0.0069444
        k(  201) = (   0.1666667   0.3367877   0.0000000), wk =   0.0069444
        k(  202) = (   0.1666667   0.3849002   0.0000000), wk =   0.0069444
        k(  203) = (   0.1666667   0.4330127   0.0000000), wk =   0.0069444
        k(  204) = (   0.1666667   0.4811252   0.0000000), wk =   0.0069444
        k(  205) = (   0.1666667   0.5292377   0.0000000), wk =   0.0069444
        k(  206) = (   0.1666667   0.5773503   0.0000000), wk =   0.0034722
        k(  207) = (   0.2083333   0.3608439   0.0000000), wk =   0.0069444
        k(  208) = (   0.2083333   0.4089564   0.0000000), wk =   0.0069444
        k(  209) = (   0.2083333   0.4570690   0.0000000), wk =   0.0069444
        k(  210) = (   0.2083333   0.5051815   0.0000000), wk =   0.0069444
        k(  211) = (   0.2083333   0.5532940   0.0000000), wk =   0.0069444
        k(  212) = (   0.2500000   0.4330127   0.0000000), wk =   0.0069444
        k(  213) = (   0.2500000   0.4811252   0.0000000), wk =   0.0069444
        k(  214) = (   0.2500000   0.5292377   0.0000000), wk =   0.0069444
        k(  215) = (   0.2500000   0.5773503   0.0000000), wk =   0.0034722
        k(  216) = (   0.2916667   0.5051815   0.0000000), wk =   0.0069444
        k(  217) = (   0.2916667   0.5532940   0.0000000), wk =   0.0069444
        k(  218) = (   0.3333333   0.5773503   0.0000000), wk =   0.0034722
        k(  219) = (  -0.0416667   0.0240563   0.0000000), wk =   0.0069444
        k(  220) = (  -0.0833333   0.0481125   0.0000000), wk =   0.0069444
        k(  221) = (  -0.1250000   0.0721688   0.0000000), wk =   0.0069444
        k(  222) = (  -0.1666667   0.0962250   0.0000000), wk =   0.0069444
        k(  223) = (  -0.2083333   0.1202813   0.0000000), wk =   0.0069444
        k(  224) = (  -0.2500000   0.1443376   0.0000000), wk =   0.0069444
        k(  225) = (  -0.2916667   0.1683938   0.0000000), wk =   0.0069444
        k(  226) = (  -0.3333333   0.1924501   0.0000000), wk =   0.0069444
        k(  227) = (  -0.3750000   0.2165064   0.0000000), wk =   0.0069444
        k(  228) = (  -0.4166667   0.2405626   0.0000000), wk =   0.0069444
        k(  229) = (  -0.4583333   0.2646189   0.0000000), wk =   0.0069444
        k(  230) = (   0.5000000  -0.2886751   0.0000000), wk =   0.0034722
        k(  231) = (   0.0833333  -0.0000000   0.0000000), wk =   0.0034722
        k(  232) = (  -0.0833333   0.0962250   0.0000000), wk =   0.0069444
        k(  233) = (   0.1250000   0.0240563   0.0000000), wk =   0.0069444
        k(  234) = (  -0.1250000   0.1202813   0.0000000), wk =   0.0069444
        k(  235) = (   0.1666667   0.0481125   0.0000000), wk =   0.0069444
        k(  236) = (  -0.1666667   0.1443376   0.0000000), wk =   0.0069444
        k(  237) = (   0.2083333   0.0721688   0.0000000), wk =   0.0069444
        k(  238) = (  -0.2083333   0.1683938   0.0000000), wk =   0.0069444
        k(  239) = (   0.2500000   0.0962250   0.0000000), wk =   0.0069444
        k(  240) = (  -0.2500000   0.1924501   0.0000000), wk =   0.0069444
        k(  241) = (   0.2916667   0.1202813   0.0000000), wk =   0.0069444
        k(  242) = (  -0.2916667   0.2165064   0.0000000), wk =   0.0069444
        k(  243) = (   0.3333333   0.1443376   0.0000000), wk =   0.0069444
        k(  244) = (  -0.3333333   0.2405626   0.0000000), wk =   0.0069444
        k(  245) = (   0.3750000   0.1683938   0.0000000), wk =   0.0069444
        k(  246) = (  -0.3750000   0.2646189   0.0000000), wk =   0.0069444
        k(  247) = (   0.4166667   0.1924501   0.0000000), wk =   0.0069444
        k(  248) = (  -0.4166667   0.2886751   0.0000000), wk =   0.0069444
        k(  249) = (   0.4583333   0.2165064   0.0000000), wk =   0.0069444
        k(  250) = (  -0.4583333   0.3127314   0.0000000), wk =   0.0069444
        k(  251) = (   0.5000000   0.2405626   0.0000000), wk =   0.0069444
        k(  252) = (   0.1666667  -0.0000000   0.0000000), wk =   0.0034722
        k(  253) = (  -0.1250000   0.1683938   0.0000000), wk =   0.0069444
        k(  254) = (   0.2083333   0.0240563   0.0000000), wk =   0.0069444
        k(  255) = (  -0.1666667   0.1924501   0.0000000), wk =   0.0069444
        k(  256) = (   0.2500000   0.0481125   0.0000000), wk =   0.0069444
        k(  257) = (  -0.2083333   0.2165064   0.0000000), wk =   0.0069444
        k(  258) = (   0.2916667   0.0721688   0.0000000), wk =   0.0069444
        k(  259) = (  -0.2500000   0.2405626   0.0000000), wk =   0.0069444
        k(  260) = (   0.3333333   0.0962250   0.0000000), wk =   0.0069444
        k(  261) = (  -0.2916667   0.2646189   0.0000000), wk =   0.0069444
        k(  262) = (   0.3750000   0.1202813   0.0000000), wk =   0.0069444
        k(  263) = (  -0.3333333   0.2886751   0.0000000), wk =   0.0069444
        k(  264) = (   0.4166667   0.1443376   0.0000000), wk =   0.0069444
        k(  265) = (  -0.3750000   0.3127314   0.0000000), wk =   0.0069444
        k(  266) = (   0.4583333   0.1683938   0.0000000), wk =   0.0069444
        k(  267) = (  -0.4166667   0.3367877   0.0000000), wk =   0.0069444
        k(  268) = (   0.5000000   0.1924501   0.0000000), wk =   0.0069444
        k(  269) = (  -0.4583333   0.3608439   0.0000000), wk =   0.0069444
        k(  270) = (   0.2500000   0.0000000   0.0000000), wk =   0.0034722
        k(  271) = (  -0.1666667   0.2405626   0.0000000), wk =   0.0069444
        k(  272) = (   0.2916667   0.0240563   0.0000000), wk =   0.0069444
        k(  273) = (  -0.2083333   0.2646189   0.0000000), wk =   0.0069444
        k(  274) = (   0.3333333   0.0481125   0.0000000), wk =   0.0069444
        k(  275) = (  -0.2500000   0.2886751   0.0000000), wk =   0.0069444
        k(  276) = (   0.3750000   0.0721688   0.0000000), wk =   0.0069444
        k(  277) = (  -0.2916667   0.3127314   0.0000000), wk =   0.0069444
        k(  278) = (   0.4166667   0.0962250   0.0000000), wk =   0.0069444
        k(  279) = (  -0.3333333   0.3367877   0.0000000), wk =   0.0069444
        k(  280) = (   0.4583333   0.1202813   0.0000000), wk =   0.0069444
        k(  281) = (  -0.3750000   0.3608439   0.0000000), wk =   0.0069444
        k(  282) = (   0.5000000   0.1443376   0.0000000), wk =   0.0069444
        k(  283) = (  -0.4166667   0.3849002   0.0000000), wk =   0.0069444
        k(  284) = (   0.5416667   0.1683938   0.0000000), wk =   0.0069444
        k(  285) = (   0.3333333  -0.0000000   0.0000000), wk =   0.0034722
        k(  286) = (  -0.2083333   0.3127314   0.0000000), wk =   0.0069444
        k(  287) = (   0.3750000   0.0240563   0.0000000), wk =   0.0069444
        k(  288) = (  -0.2500000   0.3367877   0.0000000), wk =   0.0069444
        k(  289) = (   0.4166667   0.0481125   0.0000000), wk =   0.0069444
        k(  290) = (  -0.2916667   0.3608439   0.0000000), wk =   0.0069444
        k(  291) = (   0.4583333   0.0721688   0.0000000), wk =   0.0069444
        k(  292) = (  -0.3333333   0.3849002   0.0000000), wk =   0.0069444
        k(  293) = (   0.5000000   0.0962250   0.0000000), wk =   0.0069444
        k(  294) = (  -0.3750000   0.4089564   0.0000000), wk =   0.0069444
        k(  295) = (   0.5416667   0.1202813   0.0000000), wk =   0.0069444
        k(  296) = (  -0.4166667   0.4330127   0.0000000), wk =   0.0069444
        k(  297) = (   0.4166667   0.0000000   0.0000000), wk =   0.0034722
        k(  298) = (  -0.2500000   0.3849002   0.0000000), wk =   0.0069444
        k(  299) = (   0.4583333   0.0240563   0.0000000), wk =   0.0069444
        k(  300) = (  -0.2916667   0.4089564   0.0000000), wk =   0.0069444
        k(  301) = (   0.5000000   0.0481125   0.0000000), wk =   0.0069444
        k(  302) = (  -0.3333333   0.4330127   0.0000000), wk =   0.0069444
        k(  303) = (   0.5416667   0.0721688   0.0000000), wk =   0.0069444
        k(  304) = (  -0.3750000   0.4570690   0.0000000), wk =   0.0069444
        k(  305) = (   0.5833333   0.0962250   0.0000000), wk =   0.0069444
        k(  306) = (   0.5000000   0.0000000   0.0000000), wk =   0.0034722
        k(  307) = (  -0.2916667   0.4570690   0.0000000), wk =   0.0069444
        k(  308) = (   0.5416667   0.0240563   0.0000000), wk =   0.0069444
        k(  309) = (  -0.3333333   0.4811252   0.0000000), wk =   0.0069444
        k(  310) = (   0.5833333   0.0481125   0.0000000), wk =   0.0069444
        k(  311) = (  -0.3750000   0.5051815   0.0000000), wk =   0.0069444
        k(  312) = (   0.5833333   0.0000000   0.0000000), wk =   0.0034722
        k(  313) = (  -0.3333333   0.5292377   0.0000000), wk =   0.0069444
        k(  314) = (   0.6250000   0.0240563   0.0000000), wk =   0.0069444

                       cryst. coord.
        k(    1) = (   0.0000000   0.0000000   0.0000000), wk =   0.0017361
        k(    2) = (   0.0000000   0.0416667   0.0000000), wk =   0.0034722
        k(    3) = (   0.0000000   0.0833333   0.0000000), wk =   0.0034722
        k(    4) = (   0.0000000   0.1250000   0.0000000), wk =   0.0034722
        k(    5) = (   0.0000000   0.1666667   0.0000000), wk =   0.0034722
        k(    6) = (   0.0000000   0.2083333   0.0000000), wk =   0.0034722
        k(    7) = (   0.0000000   0.2500000   0.0000000), wk =   0.0034722
        k(    8) = (   0.0000000   0.2916667   0.0000000), wk =   0.0034722
        k(    9) = (   0.0000000   0.3333333   0.0000000), wk =   0.0034722
        k(   10) = (   0.0000000   0.3750000   0.0000000), wk =   0.0034722
        k(   11) = (   0.0000000   0.4166667   0.0000000), wk =   0.0034722
        k(   12) = (   0.0000000   0.4583333   0.0000000), wk =   0.0034722
        k(   13) = (   0.0000000  -0.5000000   0.0000000), wk =   0.0017361
        k(   14) = (   0.0416667   0.0416667   0.0000000), wk =   0.0069444
        k(   15) = (   0.0416667   0.0833333   0.0000000), wk =   0.0069444
        k(   16) = (   0.0416667   0.1250000   0.0000000), wk =   0.0069444
        k(   17) = (   0.0416667   0.1666667   0.0000000), wk =   0.0069444
        k(   18) = (   0.0416667   0.2083333   0.0000000), wk =   0.0069444
        k(   19) = (   0.0416667   0.2500000   0.0000000), wk =   0.0069444
        k(   20) = (   0.0416667   0.2916667   0.0000000), wk =   0.0069444
        k(   21) = (   0.0416667   0.3333333   0.0000000), wk =   0.0069444
        k(   22) = (   0.0416667   0.3750000   0.0000000), wk =   0.0069444
        k(   23) = (   0.0416667   0.4166667   0.0000000), wk =   0.0069444
        k(   24) = (   0.0416667   0.4583333   0.0000000), wk =   0.0069444
        k(   25) = (   0.0833333   0.0833333   0.0000000), wk =   0.0069444
        k(   26) = (   0.0833333   0.1250000   0.0000000), wk =   0.0069444
        k(   27) = (   0.0833333   0.1666667   0.0000000), wk =   0.0069444
        k(   28) = (   0.0833333   0.2083333   0.0000000), wk =   0.0069444
        k(   29) = (   0.0833333   0.2500000   0.0000000), wk =   0.0069444
        k(   30) = (   0.0833333   0.2916667   0.0000000), wk =   0.0069444
        k(   31) = (   0.0833333   0.3333333   0.0000000), wk =   0.0069444
        k(   32) = (   0.0833333   0.3750000   0.0000000), wk =   0.0069444
        k(   33) = (   0.0833333   0.4166667   0.0000000), wk =   0.0069444
        k(   34) = (   0.0833333   0.4583333   0.0000000), wk =   0.0034722
        k(   35) = (   0.1250000   0.1250000   0.0000000), wk =   0.0069444
        k(   36) = (   0.1250000   0.1666667   0.0000000), wk =   0.0069444
        k(   37) = (   0.1250000   0.2083333   0.0000000), wk =   0.0069444
        k(   38) = (   0.1250000   0.2500000   0.0000000), wk =   0.0069444
        k(   39) = (   0.1250000   0.2916667   0.0000000), wk =   0.0069444
        k(   40) = (   0.1250000   0.3333333   0.0000000), wk =   0.0069444
        k(   41) = (   0.1250000   0.3750000   0.0000000), wk =   0.0069444
        k(   42) = (   0.1250000   0.4166667   0.0000000), wk =   0.0069444
        k(   43) = (   0.1666667   0.1666667   0.0000000), wk =   0.0069444
        k(   44) = (   0.1666667   0.2083333   0.0000000), wk =   0.0069444
        k(   45) = (   0.1666667   0.2500000   0.0000000), wk =   0.0069444
        k(   46) = (   0.1666667   0.2916667   0.0000000), wk =   0.0069444
        k(   47) = (   0.1666667   0.3333333   0.0000000), wk =   0.0069444
        k(   48) = (   0.1666667   0.3750000   0.0000000), wk =   0.0069444
        k(   49) = (   0.1666667   0.4166667   0.0000000), wk =   0.0034722
        k(   50) = (   0.2083333   0.2083333   0.0000000), wk =   0.0069444
        k(   51) = (   0.2083333   0.2500000   0.0000000), wk =   0.0069444
        k(   52) = (   0.2083333   0.2916667   0.0000000), wk =   0.0069444
        k(   53) = (   0.2083333   0.3333333   0.0000000), wk =   0.0069444
        k(   54) = (   0.2083333   0.3750000   0.0000000), wk =   0.0069444
        k(   55) = (   0.2500000   0.2500000   0.0000000), wk =   0.0069444
        k(   56) = (   0.2500000   0.2916667   0.0000000), wk =   0.0069444
        k(   57) = (   0.2500000   0.3333333   0.0000000), wk =   0.0069444
        k(   58) = (   0.2500000   0.3750000   0.0000000), wk =   0.0034722
        k(   59) = (   0.2916667   0.2916667   0.0000000), wk =   0.0069444
        k(   60) = (   0.2916667   0.3333333   0.0000000), wk =   0.0069444
        k(   61) = (   0.3333333   0.3333333   0.0000000), wk =   0.0034722
        k(   62) = (  -0.0416667   0.0416667   0.0000000), wk =   0.0069444
        k(   63) = (  -0.0833333   0.0833333   0.0000000), wk =   0.0069444
        k(   64) = (  -0.1250000   0.1250000   0.0000000), wk =   0.0069444
        k(   65) = (  -0.1666667   0.1666667   0.0000000), wk =   0.0069444
        k(   66) = (  -0.2083333   0.2083333   0.0000000), wk =   0.0069444
        k(   67) = (  -0.2500000   0.2500000   0.0000000), wk =   0.0069444
        k(   68) = (  -0.2916667   0.2916667   0.0000000), wk =   0.0069444
        k(   69) = (  -0.3333333   0.3333333   0.0000000), wk =   0.0069444
        k(   70) = (  -0.3750000   0.3750000   0.0000000), wk =   0.0069444
        k(   71) = (  -0.4166667   0.4166667   0.0000000), wk =   0.0069444
        k(   72) = (  -0.4583333   0.4583333   0.0000000), wk =   0.0069444
        k(   73) = (   0.5000000  -0.5000000   0.0000000), wk =   0.0034722
        k(   74) = (   0.0833333  -0.0416667   0.0000000), wk =   0.0034722
        k(   75) = (  -0.0833333   0.1250000   0.0000000), wk =   0.0069444
        k(   76) = (   0.1250000  -0.0416667   0.0000000), wk =   0.0069444
        k(   77) = (  -0.1250000   0.1666667   0.0000000), wk =   0.0069444
        k(   78) = (   0.1666667  -0.0416667   0.0000000), wk =   0.0069444
        k(   79) = (  -0.1666667   0.2083333   0.0000000), wk =   0.0069444
        k(   80) = (   0.2083333  -0.0416667   0.0000000), wk =   0.0069444
        k(   81) = (  -0.2083333   0.2500000   0.0000000), wk =   0.0069444
        k(   82) = (   0.2500000  -0.0416667   0.0000000), wk =   0.0069444
        k(   83) = (  -0.2500000   0.2916667   0.0000000), wk =   0.0069444
        k(   84) = (   0.2916667  -0.0416667   0.0000000), wk =   0.0069444
        k(   85) = (  -0.2916667   0.3333333   0.0000000), wk =   0.0069444
        k(   86) = (   0.3333333  -0.0416667   0.0000000), wk =   0.0069444
        k(   87) = (  -0.3333333   0.3750000   0.0000000), wk =   0.0069444
        k(   88) = (   0.3750000  -0.0416667   0.0000000), wk =   0.0069444
        k(   89) = (  -0.3750000   0.4166667   0.0000000), wk =   0.0069444
        k(   90) = (   0.4166667  -0.0416667   0.0000000), wk =   0.0069444
        k(   91) = (  -0.4166667   0.4583333   0.0000000), wk =   0.0069444
        k(   92) = (   0.4583333  -0.0416667   0.0000000), wk =   0.0069444
        k(   93) = (  -0.4583333   0.5000000   0.0000000), wk =   0.0069444
        k(   94) = (   0.5000000  -0.0416667   0.0000000), wk =   0.0069444
        k(   95) = (   0.1666667  -0.0833333   0.0000000), wk =   0.0034722
        k(   96) = (  -0.1250000   0.2083333   0.0000000), wk =   0.0069444
        k(   97) = (   0.2083333  -0.0833333   0.0000000), wk =   0.0069444
        k(   98) = (  -0.1666667   0.2500000   0.0000000), wk =   0.0069444
        k(   99) = (   0.2500000  -0.0833333   0.0000000), wk =   0.0069444
        k(  100) = (  -0.2083333   0.2916667   0.0000000), wk =   0.0069444
        k(  101) = (   0.2916667  -0.0833333   0.0000000), wk =   0.0069444
        k(  102) = (  -0.2500000   0.3333333   0.0000000), wk =   0.0069444
        k(  103) = (   0.3333333  -0.0833333   0.0000000), wk =   0.0069444
        k(  104) = (  -0.2916667   0.3750000   0.0000000), wk =   0.0069444
        k(  105) = (   0.3750000  -0.0833333   0.0000000), wk =   0.0069444
        k(  106) = (  -0.3333333   0.4166667   0.0000000), wk =   0.0069444
        k(  107) = (   0.4166667  -0.0833333   0.0000000), wk =   0.0069444
        k(  108) = (  -0.3750000   0.4583333   0.0000000), wk =   0.0069444
        k(  109) = (   0.4583333  -0.0833333   0.0000000), wk =   0.0069444
        k(  110) = (  -0.4166667   0.5000000   0.0000000), wk =   0.0069444
        k(  111) = (   0.5000000  -0.0833333   0.0000000), wk =   0.0069444
        k(  112) = (  -0.4583333   0.5416667   0.0000000), wk =   0.0069444
        k(  113) = (   0.2500000  -0.1250000   0.0000000), wk =   0.0034722
        k(  114) = (  -0.1666667   0.2916667   0.0000000), wk =   0.0069444
        k(  115) = (   0.2916667  -0.1250000   0.0000000), wk =   0.0069444
        k(  116) = (  -0.2083333   0.3333333   0.0000000), wk =   0.0069444
        k(  117) = (   0.3333333  -0.1250000   0.0000000), wk =   0.0069444
        k(  118) = (  -0.2500000   0.3750000   0.0000000), wk =   0.0069444
        k(  119) = (   0.3750000  -0.1250000   0.0000000), wk =   0.0069444
        k(  120) = (  -0.2916667   0.4166667   0.0000000), wk =   0.0069444
        k(  121) = (   0.4166667  -0.1250000   0.0000000), wk =   0.0069444
        k(  122) = (  -0.3333333   0.4583333   0.0000000), wk =   0.0069444
        k(  123) = (   0.4583333  -0.1250000   0.0000000), wk =   0.0069444
        k(  124) = (  -0.3750000   0.5000000   0.0000000), wk =   0.0069444
        k(  125) = (   0.5000000  -0.1250000   0.0000000), wk =   0.0069444
        k(  126) = (  -0.4166667   0.5416667   0.0000000), wk =   0.0069444
        k(  127) = (   0.5416667  -0.1250000   0.0000000), wk =   0.0069444
        k(  128) = (   0.3333333  -0.1666667   0.0000000), wk =   0.0034722
        k(  129) = (  -0.2083333   0.3750000   0.0000000), wk =   0.0069444
        k(  130) = (   0.3750000  -0.1666667   0.0000000), wk =   0.0069444
        k(  131) = (  -0.2500000   0.4166667   0.0000000), wk =   0.0069444
        k(  132) = (   0.4166667  -0.1666667   0.0000000), wk =   0.0069444
        k(  133) = (  -0.2916667   0.4583333   0.0000000), wk =   0.0069444
        k(  134) = (   0.4583333  -0.1666667   0.0000000), wk =   0.0069444
        k(  135) = (  -0.3333333   0.5000000   0.0000000), wk =   0.0069444
        k(  136) = (   0.5000000  -0.1666667   0.0000000), wk =   0.0069444
        k(  137) = (  -0.3750000   0.5416667   0.0000000), wk =   0.0069444
        k(  138) = (   0.5416667  -0.1666667   0.0000000), wk =   0.0069444
        k(  139) = (  -0.4166667   0.5833333   0.0000000), wk =   0.0069444
        k(  140) = (   0.4166667  -0.2083333   0.0000000), wk =   0.0034722
        k(  141) = (  -0.2500000   0.4583333   0.0000000), wk =   0.0069444
        k(  142) = (   0.4583333  -0.2083333   0.0000000), wk =   0.0069444
        k(  143) = (  -0.2916667   0.5000000   0.0000000), wk =   0.0069444
        k(  144) = (   0.5000000  -0.2083333   0.0000000), wk =   0.0069444
        k(  145) = (  -0.3333333   0.5416667   0.0000000), wk =   0.0069444
        k(  146) = (   0.5416667  -0.2083333   0.0000000), wk =   0.0069444
        k(  147) = (  -0.3750000   0.5833333   0.0000000), wk =   0.0069444
        k(  148) = (   0.5833333  -0.2083333   0.0000000), wk =   0.0069444
        k(  149) = (   0.5000000  -0.2500000   0.0000000), wk =   0.0034722
        k(  150) = (  -0.2916667   0.5416667   0.0000000), wk =   0.0069444
        k(  151) = (   0.5416667  -0.2500000   0.0000000), wk =   0.0069444
        k(  152) = (  -0.3333333   0.5833333   0.0000000), wk =   0.0069444
        k(  153) = (   0.5833333  -0.2500000   0.0000000), wk =   0.0069444
        k(  154) = (  -0.3750000   0.6250000   0.0000000), wk =   0.0069444
        k(  155) = (   0.5833333  -0.2916667   0.0000000), wk =   0.0034722
        k(  156) = (  -0.3333333   0.6250000   0.0000000), wk =   0.0069444
        k(  157) = (   0.6250000  -0.2916667   0.0000000), wk =   0.0069444
        k(  158) = (   0.0000000   0.0000000   0.0000000), wk =   0.0017361
        k(  159) = (   0.0000000   0.0416667   0.0000000), wk =   0.0034722
        k(  160) = (   0.0000000   0.0833333   0.0000000), wk =   0.0034722
        k(  161) = (   0.0000000   0.1250000   0.0000000), wk =   0.0034722
        k(  162) = (   0.0000000   0.1666667   0.0000000), wk =   0.0034722
        k(  163) = (   0.0000000   0.2083333   0.0000000), wk =   0.0034722
        k(  164) = (   0.0000000   0.2500000   0.0000000), wk =   0.0034722
        k(  165) = (   0.0000000   0.2916667   0.0000000), wk =   0.0034722
        k(  166) = (   0.0000000   0.3333333   0.0000000), wk =   0.0034722
        k(  167) = (   0.0000000   0.3750000   0.0000000), wk =   0.0034722
        k(  168) = (   0.0000000   0.4166667   0.0000000), wk =   0.0034722
        k(  169) = (   0.0000000   0.4583333   0.0000000), wk =   0.0034722
        k(  170) = (   0.0000000  -0.5000000   0.0000000), wk =   0.0017361
        k(  171) = (   0.0416667   0.0416667   0.0000000), wk =   0.0069444
        k(  172) = (   0.0416667   0.0833333   0.0000000), wk =   0.0069444
        k(  173) = (   0.0416667   0.1250000   0.0000000), wk =   0.0069444
        k(  174) = (   0.0416667   0.1666667   0.0000000), wk =   0.0069444
        k(  175) = (   0.0416667   0.2083333   0.0000000), wk =   0.0069444
        k(  176) = (   0.0416667   0.2500000   0.0000000), wk =   0.0069444
        k(  177) = (   0.0416667   0.2916667   0.0000000), wk =   0.0069444
        k(  178) = (   0.0416667   0.3333333   0.0000000), wk =   0.0069444
        k(  179) = (   0.0416667   0.3750000   0.0000000), wk =   0.0069444
        k(  180) = (   0.0416667   0.4166667   0.0000000), wk =   0.0069444
        k(  181) = (   0.0416667   0.4583333   0.0000000), wk =   0.0069444
        k(  182) = (   0.0833333   0.0833333   0.0000000), wk =   0.0069444
        k(  183) = (   0.0833333   0.1250000   0.0000000), wk =   0.0069444
        k(  184) = (   0.0833333   0.1666667   0.0000000), wk =   0.0069444
        k(  185) = (   0.0833333   0.2083333   0.0000000), wk =   0.0069444
        k(  186) = (   0.0833333   0.2500000   0.0000000), wk =   0.0069444
        k(  187) = (   0.0833333   0.2916667   0.0000000), wk =   0.0069444
        k(  188) = (   0.0833333   0.3333333   0.0000000), wk =   0.0069444
        k(  189) = (   0.0833333   0.3750000   0.0000000), wk =   0.0069444
        k(  190) = (   0.0833333   0.4166667   0.0000000), wk =   0.0069444
        k(  191) = (   0.0833333   0.4583333   0.0000000), wk =   0.0034722
        k(  192) = (   0.1250000   0.1250000   0.0000000), wk =   0.0069444
        k(  193) = (   0.1250000   0.1666667   0.0000000), wk =   0.0069444
        k(  194) = (   0.1250000   0.2083333   0.0000000), wk =   0.0069444
        k(  195) = (   0.1250000   0.2500000   0.0000000), wk =   0.0069444
        k(  196) = (   0.1250000   0.2916667   0.0000000), wk =   0.0069444
        k(  197) = (   0.1250000   0.3333333   0.0000000), wk =   0.0069444
        k(  198) = (   0.1250000   0.3750000   0.0000000), wk =   0.0069444
        k(  199) = (   0.1250000   0.4166667   0.0000000), wk =   0.0069444
        k(  200) = (   0.1666667   0.1666667   0.0000000), wk =   0.0069444
        k(  201) = (   0.1666667   0.2083333   0.0000000), wk =   0.0069444
        k(  202) = (   0.1666667   0.2500000   0.0000000), wk =   0.0069444
        k(  203) = (   0.1666667   0.2916667   0.0000000), wk =   0.0069444
        k(  204) = (   0.1666667   0.3333333   0.0000000), wk =   0.0069444
        k(  205) = (   0.1666667   0.3750000   0.0000000), wk =   0.0069444
        k(  206) = (   0.1666667   0.4166667   0.0000000), wk =   0.0034722
        k(  207) = (   0.2083333   0.2083333   0.0000000), wk =   0.0069444
        k(  208) = (   0.2083333   0.2500000   0.0000000), wk =   0.0069444
        k(  209) = (   0.2083333   0.2916667   0.0000000), wk =   0.0069444
        k(  210) = (   0.2083333   0.3333333   0.0000000), wk =   0.0069444
        k(  211) = (   0.2083333   0.3750000   0.0000000), wk =   0.0069444
        k(  212) = (   0.2500000   0.2500000   0.0000000), wk =   0.0069444
        k(  213) = (   0.2500000   0.2916667   0.0000000), wk =   0.0069444
        k(  214) = (   0.2500000   0.3333333   0.0000000), wk =   0.0069444
        k(  215) = (   0.2500000   0.3750000   0.0000000), wk =   0.0034722
        k(  216) = (   0.2916667   0.2916667   0.0000000), wk =   0.0069444
        k(  217) = (   0.2916667   0.3333333   0.0000000), wk =   0.0069444
        k(  218) = (   0.3333333   0.3333333   0.0000000), wk =   0.0034722
        k(  219) = (  -0.0416667   0.0416667   0.0000000), wk =   0.0069444
        k(  220) = (  -0.0833333   0.0833333   0.0000000), wk =   0.0069444
        k(  221) = (  -0.1250000   0.1250000   0.0000000), wk =   0.0069444
        k(  222) = (  -0.1666667   0.1666667   0.0000000), wk =   0.0069444
        k(  223) = (  -0.2083333   0.2083333   0.0000000), wk =   0.0069444
        k(  224) = (  -0.2500000   0.2500000   0.0000000), wk =   0.0069444
        k(  225) = (  -0.2916667   0.2916667   0.0000000), wk =   0.0069444
        k(  226) = (  -0.3333333   0.3333333   0.0000000), wk =   0.0069444
        k(  227) = (  -0.3750000   0.3750000   0.0000000), wk =   0.0069444
        k(  228) = (  -0.4166667   0.4166667   0.0000000), wk =   0.0069444
        k(  229) = (  -0.4583333   0.4583333   0.0000000), wk =   0.0069444
        k(  230) = (   0.5000000  -0.5000000   0.0000000), wk =   0.0034722
        k(  231) = (   0.0833333  -0.0416667   0.0000000), wk =   0.0034722
        k(  232) = (  -0.0833333   0.1250000   0.0000000), wk =   0.0069444
        k(  233) = (   0.1250000  -0.0416667   0.0000000), wk =   0.0069444
        k(  234) = (  -0.1250000   0.1666667   0.0000000), wk =   0.0069444
        k(  235) = (   0.1666667  -0.0416667   0.0000000), wk =   0.0069444
        k(  236) = (  -0.1666667   0.2083333   0.0000000), wk =   0.0069444
        k(  237) = (   0.2083333  -0.0416667   0.0000000), wk =   0.0069444
        k(  238) = (  -0.2083333   0.2500000   0.0000000), wk =   0.0069444
        k(  239) = (   0.2500000  -0.0416667   0.0000000), wk =   0.0069444
        k(  240) = (  -0.2500000   0.2916667   0.0000000), wk =   0.0069444
        k(  241) = (   0.2916667  -0.0416667   0.0000000), wk =   0.0069444
        k(  242) = (  -0.2916667   0.3333333   0.0000000), wk =   0.0069444
        k(  243) = (   0.3333333  -0.0416667   0.0000000), wk =   0.0069444
        k(  244) = (  -0.3333333   0.3750000   0.0000000), wk =   0.0069444
        k(  245) = (   0.3750000  -0.0416667   0.0000000), wk =   0.0069444
        k(  246) = (  -0.3750000   0.4166667   0.0000000), wk =   0.0069444
        k(  247) = (   0.4166667  -0.0416667   0.0000000), wk =   0.0069444
        k(  248) = (  -0.4166667   0.4583333   0.0000000), wk =   0.0069444
        k(  249) = (   0.4583333  -0.0416667   0.0000000), wk =   0.0069444
        k(  250) = (  -0.4583333   0.5000000   0.0000000), wk =   0.0069444
        k(  251) = (   0.5000000  -0.0416667   0.0000000), wk =   0.0069444
        k(  252) = (   0.1666667  -0.0833333   0.0000000), wk =   0.0034722
        k(  253) = (  -0.1250000   0.2083333   0.0000000), wk =   0.0069444
        k(  254) = (   0.2083333  -0.0833333   0.0000000), wk =   0.0069444
        k(  255) = (  -0.1666667   0.2500000   0.0000000), wk =   0.0069444
        k(  256) = (   0.2500000  -0.0833333   0.0000000), wk =   0.0069444
        k(  257) = (  -0.2083333   0.2916667   0.0000000), wk =   0.0069444
        k(  258) = (   0.2916667  -0.0833333   0.0000000), wk =   0.0069444
        k(  259) = (  -0.2500000   0.3333333   0.0000000), wk =   0.0069444
        k(  260) = (   0.3333333  -0.0833333   0.0000000), wk =   0.0069444
        k(  261) = (  -0.2916667   0.3750000   0.0000000), wk =   0.0069444
        k(  262) = (   0.3750000  -0.0833333   0.0000000), wk =   0.0069444
        k(  263) = (  -0.3333333   0.4166667   0.0000000), wk =   0.0069444
        k(  264) = (   0.4166667  -0.0833333   0.0000000), wk =   0.0069444
        k(  265) = (  -0.3750000   0.4583333   0.0000000), wk =   0.0069444
        k(  266) = (   0.4583333  -0.0833333   0.0000000), wk =   0.0069444
        k(  267) = (  -0.4166667   0.5000000   0.0000000), wk =   0.0069444
        k(  268) = (   0.5000000  -0.0833333   0.0000000), wk =   0.0069444
        k(  269) = (  -0.4583333   0.5416667   0.0000000), wk =   0.0069444
        k(  270) = (   0.2500000  -0.1250000   0.0000000), wk =   0.0034722
        k(  271) = (  -0.1666667   0.2916667   0.0000000), wk =   0.0069444
        k(  272) = (   0.2916667  -0.1250000   0.0000000), wk =   0.0069444
        k(  273) = (  -0.2083333   0.3333333   0.0000000), wk =   0.0069444
        k(  274) = (   0.3333333  -0.1250000   0.0000000), wk =   0.0069444
        k(  275) = (  -0.2500000   0.3750000   0.0000000), wk =   0.0069444
        k(  276) = (   0.3750000  -0.1250000   0.0000000), wk =   0.0069444
        k(  277) = (  -0.2916667   0.4166667   0.0000000), wk =   0.0069444
        k(  278) = (   0.4166667  -0.1250000   0.0000000), wk =   0.0069444
        k(  279) = (  -0.3333333   0.4583333   0.0000000), wk =   0.0069444
        k(  280) = (   0.4583333  -0.1250000   0.0000000), wk =   0.0069444
        k(  281) = (  -0.3750000   0.5000000   0.0000000), wk =   0.0069444
        k(  282) = (   0.5000000  -0.1250000   0.0000000), wk =   0.0069444
        k(  283) = (  -0.4166667   0.5416667   0.0000000), wk =   0.0069444
        k(  284) = (   0.5416667  -0.1250000   0.0000000), wk =   0.0069444
        k(  285) = (   0.3333333  -0.1666667   0.0000000), wk =   0.0034722
        k(  286) = (  -0.2083333   0.3750000   0.0000000), wk =   0.0069444
        k(  287) = (   0.3750000  -0.1666667   0.0000000), wk =   0.0069444
        k(  288) = (  -0.2500000   0.4166667   0.0000000), wk =   0.0069444
        k(  289) = (   0.4166667  -0.1666667   0.0000000), wk =   0.0069444
        k(  290) = (  -0.2916667   0.4583333   0.0000000), wk =   0.0069444
        k(  291) = (   0.4583333  -0.1666667   0.0000000), wk =   0.0069444
        k(  292) = (  -0.3333333   0.5000000   0.0000000), wk =   0.0069444
        k(  293) = (   0.5000000  -0.1666667   0.0000000), wk =   0.0069444
        k(  294) = (  -0.3750000   0.5416667   0.0000000), wk =   0.0069444
        k(  295) = (   0.5416667  -0.1666667   0.0000000), wk =   0.0069444
        k(  296) = (  -0.4166667   0.5833333   0.0000000), wk =   0.0069444
        k(  297) = (   0.4166667  -0.2083333   0.0000000), wk =   0.0034722
        k(  298) = (  -0.2500000   0.4583333   0.0000000), wk =   0.0069444
        k(  299) = (   0.4583333  -0.2083333   0.0000000), wk =   0.0069444
        k(  300) = (  -0.2916667   0.5000000   0.0000000), wk =   0.0069444
        k(  301) = (   0.5000000  -0.2083333   0.0000000), wk =   0.0069444
        k(  302) = (  -0.3333333   0.5416667   0.0000000), wk =   0.0069444
        k(  303) = (   0.5416667  -0.2083333   0.0000000), wk =   0.0069444
        k(  304) = (  -0.3750000   0.5833333   0.0000000), wk =   0.0069444
        k(  305) = (   0.5833333  -0.2083333   0.0000000), wk =   0.0069444
        k(  306) = (   0.5000000  -0.2500000   0.0000000), wk =   0.0034722
        k(  307) = (  -0.2916667   0.5416667   0.0000000), wk =   0.0069444
        k(  308) = (   0.5416667  -0.2500000   0.0000000), wk =   0.0069444
        k(  309) = (  -0.3333333   0.5833333   0.0000000), wk =   0.0069444
        k(  310) = (   0.5833333  -0.2500000   0.0000000), wk =   0.0069444
        k(  311) = (  -0.3750000   0.6250000   0.0000000), wk =   0.0069444
        k(  312) = (   0.5833333  -0.2916667   0.0000000), wk =   0.0034722
        k(  313) = (  -0.3333333   0.6250000   0.0000000), wk =   0.0069444
        k(  314) = (   0.6250000  -0.2916667   0.0000000), wk =   0.0069444

     Dense  grid:    96043 G-vectors     FFT dimensions: (  30,  30, 243)

     Smooth grid:    24369 G-vectors     FFT dimensions: (  20,  20, 160)

     Largest allocated arrays     est. size (Mb)     dimensions
        Kohn-Sham Wavefunctions         0.75 Mb     (    3069,   16)
        NL pseudopotentials             1.50 Mb     (    3069,   32)
        Each V/rho on FFT grid          6.67 Mb     (  218700,   2)
        Each G-vector array             0.73 Mb     (   96043)
        G-vector shells                 0.04 Mb     (    4763)
     Largest temporary arrays     est. size (Mb)     dimensions
        Auxiliary wavefunctions         3.00 Mb     (    3069,   64)
        Each subspace H/S matrix        0.06 Mb     (      64,   64)
        Each <psi_i|beta_j> matrix      0.01 Mb     (      32,   16)
        Arrays for rho mixing          26.70 Mb     (  218700,    8)

     Initial potential from superposition of free atoms

     starting charge   15.99979, renormalised to   16.00000

     negative rho (up, down):  8.276E-06 2.759E-06
     Starting wfc are   16 randomized atomic wfcs

     total cpu time spent up to now is       17.0 secs

     per-process dynamical memory:   297.0 Mb

     Self-consistent Calculation

     iteration #  1     ecut=    40.00 Ry     beta=0.30
     Davidson diagonalization with overlap
     ethr =  1.00E-02,  avg # of iterations =  6.2

     negative rho (up, down):  5.018E-06 1.500E-06

     Magnetic moment per site:
     atom:    1    charge:    1.6476    magn:    0.5748    constr:    0.0000
     atom:    2    charge:    1.6477    magn:    0.5748    constr:    0.0000
     atom:    3    charge:    1.6481    magn:    0.5750    constr:    0.0000
     atom:    4    charge:    1.6481    magn:    0.5750    constr:    0.0000

     total cpu time spent up to now is       93.3 secs

 ------ SPIN UP ------------


          k = 0.0000 0.0000 0.0000     band energies (ev):

   -25.4001 -25.3344 -12.5619 -12.0293  -9.8659  -9.8640  -9.8588  -9.8569
     1.9712   2.0988   2.1010   2.1198   2.1215   3.1105   4.2883   5.4145

     occupation numbers 
     1.0000   1.0000   1.0000   1.0000   1.0000   1.0000   1.0000   1.0000
     0.0000   0.0000   0.0000   0.0000   0.0000   0.0000   0.0000   0.0000

          k = 0.0000 0.0481 0.0000     band energies (ev):

   -25.3607 -25.2951 -12.5139 -11.9828 -10.0172 -10.0097  -9.9442  -9.9370
     2.0389   2.1558   2.1860   2.2652   2.2854   3.1728   5.2873   5.3472

     occupation numbers 
     1.0000   1.0000   1.0000   1.0000   1.0000   1.0000   1.0000   1.0000
     0.0000   0.0000   0.0000   0.0000   0.0000   0.0000   0.0000   0.0000

          k = 0.0000 0.0962 0.0000     band energies (ev):

   -25.2425 -25.1775 -12.3719 -11.8437 -10.4504 -10.4412 -10.1695 -10.1621
     2.0652   2.2331   2.3390   2.7480   2.7675   3.3434   4.9156   5.0246

     occupation numbers 
     1.0000   1.0000   1.0000   1.0000   1.0000   1.0000   1.0000   1.0000
     0.0000   0.0000   0.0000   0.0000   0.0000   0.0000   0.0000   0.0000

          k = 0.0000 0.1443 0.0000     band energies (ev):

   -25.0460 -24.9819 -12.1364 -11.6132 -11.1135 -11.1020 -10.5021 -10.4942
     2.1590   2.3025   2.5757   3.5049   3.5236   3.6192   4.3237   4.4565

     occupation numbers 
     1.0000   1.0000   1.0000   1.0000   1.0000   1.0000   1.0000   1.0000
     0.0000   0.0000   0.0000   0.0000   0.0000   0.0000   0.0000   0.0000

          k = 0.0000 0.1925 0.0000     band energies (ev):

   -24.7718 -24.7089 -11.9444 -11.9298 -11.8095 -11.2934 -10.8969 -10.8886
     2.2132   2.3210   2.9147   3.5540   3.7057   3.9992   4.4835   4.5009

     occupation numbers 
     1.0000   1.0000   1.0000   1.0000   1.0000   1.0000   1.0000   1.0000
     0.0000   0.0000   0.0000   0.0000   0.0000   0.0000   0.0000   0.0000

          k = 0.0000 0.2406 0.0000     band energies (ev):

   -24.4207 -24.3594 -12.8853 -12.8675 -11.3938 -11.3134 -11.3043 -10.8875
     2.1892   2.2851   2.6478   2.8358   3.3496   4.4923   5.6284   5.6465

     occupation numbers 
     1.0000   1.0000   1.0000   1.0000   1.0000   1.0000   1.0000   1.0000
     0.0000   0.0000   0.0000   0.0000   0.0000   0.0000   0.0000   0.0000

          k = 0.0000 0.2887 0.0000     band energies (ev):

   -23.9942 -23.9346 -13.8900 -13.8688 -11.7190 -11.7097 -10.8951 -10.4008
     1.6413   1.8674   2.1201   2.2064   3.8962   5.0680   6.8957   6.9058

     occupation numbers 
     1.0000   1.0000   1.0000   1.0000   1.0000   1.0000   1.0000   1.0000
     0.0000   0.0000   0.0000   0.0000   0.0000   0.0000   0.0000   0.0000

          k = 0.0000 0.3368 0.0000     band energies (ev):

   -23.4940 -23.4365 -14.9227 -14.8980 -12.0909 -12.0813 -10.3205  -9.8414
     0.5830   0.8479   2.0187   2.1055   4.5540   5.7685   8.1981   8.2273

     occupation numbers 
     1.0000   1.0000   1.0000   1.0000   1.0000   1.0000   1.0000   1.0000
     0.0000   0.0000   0.0000   0.0000   0.0000   0.0000   0.0000   0.0000

          k = 0.0000 0.3849 0.0000     band energies (ev):

   -22.9229 -22.8678 -15.9564 -15.9282 -12.4125 -12.4026  -9.6835  -9.2229
    -0.4898  -0.1842   1.9109   1.9983   5.3014   6.5676   9.5627   9.5694

     occupation numbers 
     1.0000   1.0000   1.0000   1.0000   1.0000   1.0000   1.0000   1.0000
     0.0000   0.0000   0.0000   0.0000   0.0000   0.0000   0.0000   0.0000

          k = 0.0000 0.4330 0.0000     band energies (ev):

   -22.2859 -22.2331 -16.9687 -16.9369 -12.6722 -12.6622  -9.0082  -8.5703
    -1.5302  -1.1816   1.8133   1.9024   6.1184   7.4288   8.2716  10.6038

     occupation numbers 
     1.0000   1.0000   1.0000   1.0000   1.0000   1.0000   1.0000   1.0000
     0.0000   0.0000   0.0000   0.0000   0.0000   0.0000   0.0000   0.0000

          k = 0.0000 0.4811 0.0000     band energies (ev):

   -21.5927 -21.5426 -17.9372 -17.9022 -12.8625 -12.8525  -8.3438  -7.9333
    -2.4663  -2.0769   1.7408   1.8279   7.0174   8.3550  10.4175  11.8934

     occupation numbers 
     1.0000   1.0000   1.0000   1.0000   1.0000   1.0000   1.0000   1.0000
     0.0000   0.0000   0.0000   0.0000   0.0000   0.0000   0.0000   0.0000

          k = 0.0000 0.5292 0.0000     band energies (ev):

   -20.8799 -20.8321 -18.8182 -18.7804 -12.9784 -12.9683  -7.7987  -7.4169
    -3.1817  -2.7534   1.6927   1.7817   7.9561   9.3921   9.5238  10.1128

     occupation numbers 
     1.0000   1.0000   1.0000   1.0000   1.0000   1.0000   1.0000   1.0000
     0.0000   0.0000   0.0000   0.0000   0.0000   0.0000   0.0000   0.0000

          k = 0.0000-0.5774 0.0000     band energies (ev):

   -20.4219 -20.3750 -19.3326 -19.2941 -13.0172 -13.0066  -7.5712  -7.2042
    -3.4661  -3.0200   1.6765   1.7659   8.8356   8.9068  10.3861  10.4917

     occupation numbers 
     1.0000   1.0000   1.0000   1.0000   1.0000   1.0000   1.0000   1.0000
     1.0000   0.0000   0.0000   0.0000   0.0000   0.0000   0.0000   0.0000

          k = 0.0417 0.0722 0.0000     band energies (ev):

   -25.2819 -25.2167 -12.4192 -11.8900 -10.3016 -10.2930 -10.1048 -10.0973
     2.0547   2.2306   2.3030   2.5682   2.5889   3.2896   5.0377   5.1429

     occupation numbers 
     1.0000   1.0000   1.0000   1.0000   1.0000   1.0000   1.0000   1.0000
     0.0000   0.0000   0.0000   0.0000   0.0000   0.0000   0.0000   0.0000

          k = 0.0417 0.1203 0.0000     band energies (ev):

   -25.1246 -25.0601 -12.2304 -11.7051 -10.8329 -10.8225 -10.4008 -10.3928
     2.1734   2.3498   2.5168   3.1317   3.1517   3.4681   4.5573   4.6807

     occupation numbers 
     1.0000   1.0000   1.0000   1.0000   1.0000   1.0000   1.0000   1.0000
     0.0000   0.0000   0.0000   0.0000   0.0000   0.0000   0.0000   0.0000

          k = 0.0417 0.1684 0.0000     band energies (ev):

   -24.8892 -24.8257 -11.9491 -11.5618 -11.5487 -11.4298 -10.7827 -10.7741
     2.2970   2.4388   2.7997   3.8337   3.8804   3.9340   3.9542   4.0310

     occupation numbers 
     1.0000   1.0000   1.0000   1.0000   1.0000   1.0000   1.0000   1.0000
     0.0000   0.0000   0.0000   0.0000   0.0000   0.0000   0.0000   0.0000

          k = 0.0417 0.2165 0.0000     band energies (ev):

   -24.5766 -24.5145 -12.4325 -12.4164 -11.5776 -11.2036 -11.1943 -11.0669
     2.3447   2.4517   3.0465   3.1755   3.2207   4.2602   4.9226   4.9462

     occupation numbers 
     1.0000   1.0000   1.0000   1.0000   1.0000   1.0000   1.0000   1.0000
     0.0000   0.0000   0.0000   0.0000   0.0000   0.0000   0.0000   0.0000

          k = 0.0417 0.2646 0.0000     band energies (ev):

   -24.1878 -24.1274 -13.3940 -13.3746 -11.6260 -11.6161 -11.1202 -10.6202
     2.0958   2.3021   2.3150   2.4088   3.6509   4.8056   6.0529   6.0816

     occupation numbers 
     1.0000   1.0000   1.0000   1.0000   1.0000   1.0000   1.0000   1.0000
     0.0000   0.0000   0.0000   0.0000   0.0000   0.0000   0.0000   0.0000

          k = 0.0417 0.3127 0.0000     band energies (ev):

   -23.7244 -23.6660 -14.4047 -14.3820 -12.0228 -12.0125 -10.5829 -10.0964
     1.0722   1.3158   2.2335   2.3202   4.2407   5.4332   6.5131   7.2689

     occupation numbers 
     1.0000   1.0000   1.0000   1.0000   1.0000   1.0000   1.0000   1.0000
     0.0000   0.0000   0.0000   0.0000   0.0000   0.0000   0.0000   0.0000

          k = 0.0417 0.3608 0.0000     band energies (ev):

   -23.1887 -23.1325 -15.4326 -15.4062 -12.3748 -12.3640  -9.9753  -9.5056
     0.0107   0.2940   2.1309   2.2198   4.9385   6.1782   7.1744   8.4866

     occupation numbers 
     1.0000   1.0000   1.0000   1.0000   1.0000   1.0000   1.0000   1.0000
     0.0000   0.0000   0.0000   0.0000   0.0000   0.0000   0.0000   0.0000

          k = 0.0417 0.4090 0.0000     band energies (ev):

   -22.5844 -22.5305 -16.4522 -16.4223 -12.6688 -12.6578  -9.3152  -8.8661
    -1.0438  -0.7195   2.0284   2.1180   5.7242   7.0098   7.9064   9.5701

     occupation numbers 
     1.0000   1.0000   1.0000   1.0000   1.0000   1.0000   1.0000   1.0000
     0.0000   0.0000   0.0000   0.0000   0.0000   0.0000   0.0000   0.0000

          k = 0.0417 0.4571 0.0000     band energies (ev):

   -21.9179 -21.8666 -17.4417 -17.4082 -12.8960 -12.8847  -8.6363  -8.2122
    -2.0358  -1.6710   1.9407   2.0322   6.5904   7.9121  10.1928  10.6054

     occupation numbers 
     1.0000   1.0000   1.0000   1.0000   1.0000   1.0000   1.0000   1.0000
     0.0000   0.0000   0.0000   0.0000   0.0000   0.0000   0.0000   0.0000

          k = 0.0417 0.5052 0.0000     band energies (ev):

   -21.2071 -21.1584 -18.3727 -18.3363 -13.0503 -13.0389  -8.0114  -7.6161
    -2.8796  -2.4737   1.8821   1.9714   7.5090   8.8639   9.3202  10.1275

     occupation numbers 
     1.0000   1.0000   1.0000   1.0000   1.0000   1.0000   1.0000   1.0000
     0.0000   0.0000   0.0000   0.0000   0.0000   0.0000   0.0000   0.0000

          k = 0.0417 0.5533 0.0000     band energies (ev):

   -20.5437 -20.4967 -19.1478 -19.1093 -13.1283 -13.1166  -7.5950  -7.2243
    -3.4073  -2.9711   1.8495   1.9410   8.4260   9.2239   9.8184  10.1009

     occupation numbers 
     1.0000   1.0000   1.0000   1.0000   1.0000   1.0000   1.0000   1.0000
     0.5541   0.0000   0.0000   0.0000   0.0000   0.0000   0.0000   0.0000

          k = 0.0833 0.1443 0.0000     band energies (ev):

   -24.9284 -24.8648 -11.9957 -11.4756 -11.3982 -11.3859 -10.7781 -10.7689
     2.3693   2.5752   2.8025   3.6247   3.6489   3.8024   3.9953   4.1350

     occupation numbers 
     1.0000   1.0000   1.0000   1.0000   1.0000   1.0000   1.0000   1.0000
     0.0000   0.0000   0.0000   0.0000   0.0000   0.0000   0.0000   0.0000

          k = 0.0833 0.1925 0.0000     band energies (ev):

   -24.6546 -24.5923 -12.1242 -12.1093 -11.6697 -11.2291 -11.2191 -11.1569
     2.6144   2.7686   3.1943   3.2636   3.4240   4.1529   4.2794   4.3095

     occupation numbers 
     1.0000   1.0000   1.0000   1.0000   1.0000   1.0000   1.0000   1.0000
     0.0000   0.0000   0.0000   0.0000   0.0000   0.0000   0.0000   0.0000

          k = 0.0833 0.2406 0.0000     band energies (ev):

   -24.3042 -24.2434 -12.9790 -12.9613 -11.6926 -11.6815 -11.2559 -10.7527
     2.3973   2.5875   2.7168   2.8471   3.5328   4.6262   5.1312   5.1696

     occupation numbers 
     1.0000   1.0000   1.0000   1.0000   1.0000   1.0000   1.0000   1.0000
     0.0000   0.0000   0.0000   0.0000   0.0000   0.0000   0.0000   0.0000

          k = 0.0833 0.2887 0.0000     band energies (ev):

   -23.8786 -23.8195 -13.9210 -13.9001 -12.1314 -12.1197 -10.7588 -10.2679
     1.4400   1.6610   2.7235   2.8250   4.0616   5.2130   6.1416   6.1921

     occupation numbers 
     1.0000   1.0000   1.0000   1.0000   1.0000   1.0000   1.0000   1.0000
     0.0000   0.0000   0.0000   0.0000   0.0000   0.0000   0.0000   0.0000

          k = 0.0833 0.3368 0.0000     band energies (ev):

   -23.3796 -23.3227 -14.9099 -14.8856 -12.5250 -12.5127 -10.1861  -9.7102
     0.4244   0.6803   2.6553   2.7483   4.6998   5.9127   7.2354   7.3112

     occupation numbers 
     1.0000   1.0000   1.0000   1.0000   1.0000   1.0000   1.0000   1.0000
     0.0000   0.0000   0.0000   0.0000   0.0000   0.0000   0.0000   0.0000

          k = 0.0833 0.3849 0.0000     band energies (ev):

   -22.8102 -22.7556 -15.9131 -15.8853 -12.8602 -12.8476  -9.5506  -9.0930
    -0.6102  -0.3169   2.5612   2.6555   5.4333   6.6876   8.3152   8.4560

     occupation numbers 
     1.0000   1.0000   1.0000   1.0000   1.0000   1.0000   1.0000   1.0000
     0.0000   0.0000   0.0000   0.0000   0.0000   0.0000   0.0000   0.0000

          k = 0.0833 0.4330 0.0000     band energies (ev):

   -22.1753 -22.1231 -16.9042 -16.8728 -13.1283 -13.1153  -8.8755  -8.4404
    -1.6194  -1.2870   2.4681   2.5640   6.2472   7.5482   9.2636   9.5438

     occupation numbers 
     1.0000   1.0000   1.0000   1.0000   1.0000   1.0000   1.0000   1.0000
     0.0000   0.0000   0.0000   0.0000   0.0000   0.0000   0.0000   0.0000

          k = 0.0833 0.4811 0.0000     band energies (ev):

   -21.4853 -21.4355 -17.8580 -17.8232 -13.3235 -13.3101  -8.2088  -7.8005
    -2.5387  -2.1655   2.3924   2.4912   7.1229   8.4379   9.7121  10.4000

     occupation numbers 
     1.0000   1.0000   1.0000   1.0000   1.0000   1.0000   1.0000   1.0000
     0.0000   0.0000   0.0000   0.0000   0.0000   0.0000   0.0000   0.0000

          k = 0.0833 0.5292 0.0000     band energies (ev):

   -20.7763 -20.7289 -18.7287 -18.6910 -13.4420 -13.4284  -7.6577  -7.2777
    -3.2466  -2.8365   2.3437   2.4453   8.0044   9.1751   9.3551   9.9389

     occupation numbers 
     1.0000   1.0000   1.0000   1.0000   1.0000   1.0000   1.0000   1.0000
     0.0000   0.0000   0.0000   0.0000   0.0000   0.0000   0.0000   0.0000

          k = 0.0833 0.5774 0.0000     band energies (ev):

   -20.3216 -20.2752 -19.2377 -19.1997 -13.4816 -13.4682  -7.4256  -7.0603
    -3.5311  -3.1039   2.3271   2.4214   8.7989   8.9019  10.0637  10.3653

     occupation numbers 
     1.0000   1.0000   1.0000   1.0000   1.0000   1.0000   1.0000   1.0000
     1.0000   0.0000   0.0000   0.0000   0.0000   0.0000   0.0000   0.0000

          k = 0.1250 0.2165 0.0000     band energies (ev):

   -24.3431 -24.2821 -12.7930 -12.7761 -11.7643 -11.7525 -11.3013 -10.7970
     2.5037   2.6868   2.9695   3.1766   3.5714   4.5873   4.6226   4.6629

     occupation numbers 
     1.0000   1.0000   1.0000   1.0000   1.0000   1.0000   1.0000   1.0000
     0.0000   0.0000   0.0000   0.0000   0.0000   0.0000   0.0000   0.0000

          k = 0.1250 0.2646 0.0000     band energies (ev):

   -23.9559 -23.8965 -13.5751 -13.5556 -12.2975 -12.2843 -10.8472 -10.3539
     1.6390   1.8460   3.2742   3.4410   4.0387   5.0988   5.1995   5.2603

     occupation numbers 
     1.0000   1.0000   1.0000   1.0000   1.0000   1.0000   1.0000   1.0000
     0.0000   0.0000   0.0000   0.0000   0.0000   0.0000   0.0000   0.0000

          k = 0.1250 0.3127 0.0000     band energies (ev):

   -23.4946 -23.4372 -14.4544 -14.4320 -12.7741 -12.7598 -10.3137  -9.8340
     0.7006   0.9349   3.3750   3.4975   4.5768   5.7333   6.0576   6.1354

     occupation numbers 
     1.0000   1.0000   1.0000   1.0000   1.0000   1.0000   1.0000   1.0000
     0.0000   0.0000   0.0000   0.0000   0.0000   0.0000   0.0000   0.0000

          k = 0.1250 0.3608 0.0000     band energies (ev):

   -22.9618 -22.9066 -15.3935 -15.3678 -13.1762 -13.1612  -9.7099  -9.2467
    -0.2796  -0.0139   3.3419   3.4472   5.2416   6.4528   7.0663   7.1747

     occupation numbers 
     1.0000   1.0000   1.0000   1.0000   1.0000   1.0000   1.0000   1.0000
     0.0000   0.0000   0.0000   0.0000   0.0000   0.0000   0.0000   0.0000

          k = 0.1250 0.4090 0.0000     band energies (ev):

   -22.3613 -22.3086 -16.3539 -16.3247 -13.5003 -13.4848  -9.0522  -8.6091
    -1.2648  -0.9653   3.2618   3.3632   5.9987   7.2303   8.0872   8.2653

     occupation numbers 
     1.0000   1.0000   1.0000   1.0000   1.0000   1.0000   1.0000   1.0000
     0.0000   0.0000   0.0000   0.0000   0.0000   0.0000   0.0000   0.0000

          k = 0.1250 0.4571 0.0000     band energies (ev):

   -21.7000 -21.6499 -17.3033 -17.2708 -13.7450 -13.7291  -8.3718  -7.9529
    -2.2083  -1.8721   3.1798   3.2815   6.8190   8.0865   8.9490   9.2956

     occupation numbers 
     1.0000   1.0000   1.0000   1.0000   1.0000   1.0000   1.0000   1.0000
     0.0000   0.0000   0.0000   0.0000   0.0000   0.0000   0.0000   0.0000

          k = 0.1250 0.5052 0.0000     band energies (ev):

   -20.9963 -20.9486 -18.2072 -18.1717 -13.9090 -13.8929  -7.7381  -7.3468
    -3.0262  -2.6527   3.1169   3.2199   7.6388   8.7708   8.9399   9.6041

     occupation numbers 
     1.0000   1.0000   1.0000   1.0000   1.0000   1.0000   1.0000   1.0000
     0.0000   0.0000   0.0000   0.0000   0.0000   0.0000   0.0000   0.0000

          k = 0.1250 0.5533 0.0000     band energies (ev):

   -20.3410 -20.2951 -18.9649 -18.9272 -13.9912 -13.9749  -7.3073  -6.9401
    -3.5510  -3.1485   3.0834   3.1873   8.3288   8.7780   9.6846   9.8114

     occupation numbers 
     1.0000   1.0000   1.0000   1.0000   1.0000   1.0000   1.0000   1.0000
     1.0000   0.0000   0.0000   0.0000   0.0000   0.0000   0.0000   0.0000

          k = 0.1667 0.2887 0.0000     band energies (ev):

   -23.5330 -23.4755 -14.2420 -14.2206 -12.9210 -12.9057 -10.3564  -9.8753
     0.7982   1.0243   3.8477   4.0516   4.6306   5.3441   5.4131   5.7124

     occupation numbers 
     1.0000   1.0000   1.0000   1.0000   1.0000   1.0000   1.0000   1.0000
     0.0000   0.0000   0.0000   0.0000   0.0000   0.0000   0.0000   0.0000

          k = 0.1667 0.3368 0.0000     band energies (ev):

   -23.0378 -22.9824 -15.0071 -14.9831 -13.4707 -13.4539  -9.7903  -9.3243
    -0.0980   0.1503   4.1850   4.3485   5.1950   5.9356   5.9942   6.3853

     occupation numbers 
     1.0000   1.0000   1.0000   1.0000   1.0000   1.0000   1.0000   1.0000
     0.0000   0.0000   0.0000   0.0000   0.0000   0.0000   0.0000   0.0000

          k = 0.1667 0.3849 0.0000     band energies (ev):

   -22.4736 -22.4204 -15.8585 -15.8313 -13.9071 -13.8891  -9.1603  -8.7124
    -1.0227  -0.7490   4.2287   4.3577   5.8525   6.8768   6.9015   7.1719

     occupation numbers 
     1.0000   1.0000   1.0000   1.0000   1.0000   1.0000   1.0000   1.0000
     0.0000   0.0000   0.0000   0.0000   0.0000   0.0000   0.0000   0.0000

          k = 0.1667 0.4330 0.0000     band energies (ev):

   -21.8456 -21.7950 -16.7531 -16.7227 -14.2329 -14.2144  -8.4872  -8.0608
    -1.9422  -1.6393   4.1674   4.2888   6.6109   7.8079   7.8725   8.1352

     occupation numbers 
     1.0000   1.0000   1.0000   1.0000   1.0000   1.0000   1.0000   1.0000
     0.0000   0.0000   0.0000   0.0000   0.0000   0.0000   0.0000   0.0000

          k = 0.1667 0.4811 0.0000     band energies (ev):

   -21.1647 -21.1167 -17.6455 -17.6120 -14.4595 -14.4406  -7.8135  -7.4123
    -2.8019  -2.4674   4.0962   4.2168   7.4006   8.6446   8.7056   9.1083

     occupation numbers 
     1.0000   1.0000   1.0000   1.0000   1.0000   1.0000   1.0000   1.0000
     0.0000   0.0000   0.0000   0.0000   0.0000   0.0000   0.0000   0.0000

          k = 0.1667 0.5292 0.0000     band energies (ev):

   -20.4674 -20.4216 -18.4775 -18.4410 -14.5936 -14.5743  -7.2407  -6.8662
    -3.4917  -3.1241   4.0455   4.1677   7.8834   8.4612   9.5686   9.5862

     occupation numbers 
     1.0000   1.0000   1.0000   1.0000   1.0000   1.0000   1.0000   1.0000
     1.0000   0.0000   0.0000   0.0000   0.0000   0.0000   0.0000   0.0000

          k = 0.1667 0.5774 0.0000     band energies (ev):

   -20.0211 -19.9762 -18.9697 -18.9322 -14.6378 -14.6185  -6.9906  -6.6306
    -3.7810  -3.3982   4.0283   4.1507   8.0222   8.6347   9.7477   9.8286

     occupation numbers 
     1.0000   1.0000   1.0000   1.0000   1.0000   1.0000   1.0000   1.0000
     1.0000   0.0000   0.0000   0.0000   0.0000   0.0000   0.0000   0.0000

          k = 0.2083 0.3608 0.0000     band energies (ev):

   -22.5111 -22.4579 -15.6192 -15.5930 -14.1199 -14.1009  -9.1968  -8.7473
    -0.9362  -0.6722   4.9636   5.1751   5.9378   5.9579   6.0536   7.0352

     occupation numbers 
     1.0000   1.0000   1.0000   1.0000   1.0000   1.0000   1.0000   1.0000
     0.0000   0.0000   0.0000   0.0000   0.0000   0.0000   0.0000   0.0000

          k = 0.2083 0.4090 0.0000     band energies (ev):

   -21.9189 -21.8681 -16.3298 -16.3010 -14.6337 -14.6132  -8.5469  -8.1167
    -1.7927  -1.5100   5.2400   5.4151   6.4163   6.7774   6.8163   7.7710

     occupation numbers 
     1.0000   1.0000   1.0000   1.0000   1.0000   1.0000   1.0000   1.0000
     0.0000   0.0000   0.0000   0.0000   0.0000   0.0000   0.0000   0.0000

          k = 0.2083 0.4571 0.0000     band energies (ev):

   -21.2688 -21.2206 -17.1218 -17.0902 -14.9895 -14.9681  -7.8659  -7.4581
    -2.6362  -2.3307   5.2032   5.3605   7.1681   7.7854   7.8188   8.4913

     occupation numbers 
     1.0000   1.0000   1.0000   1.0000   1.0000   1.0000   1.0000   1.0000
     0.0000   0.0000   0.0000   0.0000   0.0000   0.0000   0.0000   0.0000

          k = 0.2083 0.5052 0.0000     band energies (ev):

   -20.5795 -20.5337 -17.9337 -17.8991 -15.2098 -15.1877  -7.2117  -6.8291
    -3.4036  -3.0717   5.1383   5.2940   7.5263   8.0390   8.7560   8.9819

     occupation numbers 
     1.0000   1.0000   1.0000   1.0000   1.0000   1.0000   1.0000   1.0000
     0.0000   0.0000   0.0000   0.0000   0.0000   0.0000   0.0000   0.0000

          k = 0.2083 0.5533 0.0000     band energies (ev):

   -19.9386 -19.8945 -18.6436 -18.6067 -15.3152 -15.2928  -6.7396  -6.3795
    -3.9335  -3.5784   5.1005   5.2571   7.5405   8.4148   9.1346   9.3765

     occupation numbers 
     1.0000   1.0000   1.0000   1.0000   1.0000   1.0000   1.0000   1.0000
     1.0000   1.0000   0.0000   0.0000   0.0000   0.0000   0.0000   0.0000

          k = 0.2500 0.4330 0.0000     band energies (ev):

   -21.3040 -21.2556 -16.8608 -16.8300 -15.2550 -15.2325  -7.8846  -7.4745
    -2.5750  -2.2803   6.2080   6.4873   6.5135   6.6961   7.3995   8.4279

     occupation numbers 
     1.0000   1.0000   1.0000   1.0000   1.0000   1.0000   1.0000   1.0000
     0.0000   0.0000   0.0000   0.0000   0.0000   0.0000   0.0000   0.0000

          k = 0.2500 0.4811 0.0000     band energies (ev):

   -20.6407 -20.5947 -17.4947 -17.4614 -15.6871 -15.6631  -7.2028  -6.8151
    -3.3417  -3.0312   6.2710   6.4938   7.2763   7.3186   7.6966   8.6929

     occupation numbers 
     1.0000   1.0000   1.0000   1.0000   1.0000   1.0000   1.0000   1.0000
     0.0000   0.0000   0.0000   0.0000   0.0000   0.0000   0.0000   0.0000

          k = 0.2500 0.5292 0.0000     band energies (ev):

   -19.9633 -19.9197 -18.1843 -18.1486 -15.9234 -15.8984  -6.5799  -6.2152
    -4.0155  -3.6859   6.2026   6.4257   7.1868   7.9897   8.6246   8.8324

     occupation numbers 
     1.0000   1.0000   1.0000   1.0000   1.0000   1.0000   1.0000   1.0000
     1.0000   1.0000   0.0000   0.0000   0.0000   0.0000   0.0000   0.0000

          k = 0.2500 0.5774 0.0000     band energies (ev):

   -19.5212 -19.4788 -18.6366 -18.5994 -15.9972 -15.9717  -6.2725  -5.9216
    -4.3399  -3.9978   6.1782   6.4034   7.1348   8.2480   8.8318   9.0292

     occupation numbers 
     1.0000   1.0000   1.0000   1.0000   1.0000   1.0000   1.0000   1.0000
     1.0000   1.0000   0.0000   0.0000   0.0000   0.0000   0.0000   0.0000

          k = 0.2917 0.5052 0.0000     band energies (ev):

   -19.9799 -19.9365 -17.9348 -17.8996 -16.2160 -16.1905  -6.5256  -6.1582
    -4.0403  -3.7213   7.0652   7.1090   7.3835   7.4092   7.7877   8.7218

     occupation numbers 
     1.0000   1.0000   1.0000   1.0000   1.0000   1.0000   1.0000   1.0000
     1.0000   1.0000   0.0000   0.0000   0.0000   0.0000   0.0000   0.0000

          k = 0.2917 0.5533 0.0000     band energies (ev):

   -19.3538 -19.3125 -18.4487 -18.4115 -16.4863 -16.4600  -5.9323  -5.5833
    -4.6421  -4.3113   6.8900   7.1608   7.4681   7.9109   8.4638   8.6329

     occupation numbers 
     1.0000   1.0000   1.0000   1.0000   1.0000   1.0000   1.0000   1.0000
     1.0000   1.0000   0.0000   0.0000   0.0000   0.0000   0.0000   0.0000

          k = 0.3333 0.5774 0.0000     band energies (ev):

   -18.8249 -18.8241 -18.7857 -18.7850 -16.7145 -16.6859  -5.2833  -5.2825
    -4.9460  -4.9451   6.7886   7.7082   7.7089   8.1860   8.1872   8.5514

     occupation numbers 
     1.0000   1.0000   1.0000   1.0000   1.0000   1.0000   1.0000   1.0000
     1.0000   1.0000   0.0000   0.0000   0.0000   0.0000   0.0000   0.0000

          k =-0.0417 0.0241 0.0000     band energies (ev):

   -25.3606 -25.2952 -12.5140 -11.9829 -10.0159 -10.0083  -9.9456  -9.9384
     2.0565   2.1539   2.1933   2.2670   2.2871   3.1765   5.2869   5.3865

     occupation numbers 
     1.0000   1.0000   1.0000   1.0000   1.0000   1.0000   1.0000   1.0000
     0.0000   0.0000   0.0000   0.0000   0.0000   0.0000   0.0000   0.0000

          k =-0.0833 0.0481 0.0000     band energies (ev):

   -25.2425 -25.1775 -12.3719 -11.8438 -10.4491 -10.4400 -10.1708 -10.1634
     2.0624   2.2315   2.3353   2.7496   2.7692   3.3433   4.9097   5.0196

     occupation numbers 
     1.0000   1.0000   1.0000   1.0000   1.0000   1.0000   1.0000   1.0000
     0.0000   0.0000   0.0000   0.0000   0.0000   0.0000   0.0000   0.0000

          k =-0.1250 0.0722 0.0000     band energies (ev):

   -25.0460 -24.9819 -12.1365 -11.6132 -11.1124 -11.1008 -10.5033 -10.4954
     2.1628   2.3008   2.5799   3.5067   3.5252   3.6134   4.3237   4.4571

     occupation numbers 
     1.0000   1.0000   1.0000   1.0000   1.0000   1.0000   1.0000   1.0000
[...]
     0.0000   0.0000   0.0000   0.0000   0.0000   0.0000   0.0000   0.0000

          k = 0.3333-0.0000 0.0000 (  3039 PWs)   bands (ev):

   -18.0709 -17.9796  -8.2752  -8.2401  -6.9312  -6.9055  -6.1544  -5.4520
     5.5312   5.6824   5.9574   6.0345   6.6803   7.8802   7.9531   9.4487

     occupation numbers 
     1.0000   1.0000   1.0000   1.0000   1.0000   1.0000   1.0000   1.0000
     0.0000   0.0000   0.0000   0.0000   0.0000   0.0000   0.0000   0.0000

          k =-0.2083 0.3127 0.0000 (  3057 PWs)   bands (ev):

   -17.5535 -17.4653  -9.0891  -9.0499  -7.5232  -7.4950  -5.5557  -4.8725
     4.7130   5.0976   6.2410   6.6723   7.4102   8.5933   8.5997   9.6874

     occupation numbers 
     1.0000   1.0000   1.0000   1.0000   1.0000   1.0000   1.0000   1.0000
     0.0000   0.0000   0.0000   0.0000   0.0000   0.0000   0.0000   0.0000

          k = 0.3750 0.0241 0.0000 (  3057 PWs)   bands (ev):

   -17.5535 -17.4653  -9.0886  -9.0494  -7.5238  -7.4956  -5.5558  -4.8726
     4.7134   5.0979   6.2409   6.6723   7.4102   8.5932   8.5998   9.6864

     occupation numbers 
     1.0000   1.0000   1.0000   1.0000   1.0000   1.0000   1.0000   1.0000
     0.0000   0.0000   0.0000   0.0000   0.0000   0.0000   0.0000   0.0000

          k =-0.2500 0.3368 0.0000 (  3045 PWs)   bands (ev):

   -16.9630 -16.8783  -9.9997  -9.9555  -7.9836  -7.9536  -4.8863  -4.2266
     3.7089   4.1328   7.0543   7.4909   8.2478   9.2781   9.4185   9.6562

     occupation numbers 
     1.0000   1.0000   1.0000   1.0000   1.0000   1.0000   1.0000   1.0000
     0.0000   0.0000   0.0000   0.0000   0.0000   0.0000   0.0000   0.0000

          k = 0.4167 0.0481 0.0000 (  3045 PWs)   bands (ev):

   -16.9630 -16.8783  -9.9994  -9.9551  -7.9840  -7.9540  -4.8864  -4.2267
     3.7093   4.1331   7.0543   7.4909   8.2478   9.2779   9.4189   9.6558

     occupation numbers 
     1.0000   1.0000   1.0000   1.0000   1.0000   1.0000   1.0000   1.0000
     0.0000   0.0000   0.0000   0.0000   0.0000   0.0000   0.0000   0.0000

          k =-0.2917 0.3608 0.0000 (  3042 PWs)   bands (ev):

   -16.3043 -16.2235 -10.9557 -10.9063  -8.3231  -8.2921  -4.1656  -3.5348
     2.7055   3.1743   7.9653   8.4075   9.1771   9.5245   9.6810  10.0008

     occupation numbers 
     1.0000   1.0000   1.0000   1.0000   1.0000   1.0000   1.0000   1.0000
     0.0000   0.0000   0.0000   0.0000   0.0000   0.0000   0.0000   0.0000

          k = 0.4583 0.0722 0.0000 (  3042 PWs)   bands (ev):

   -16.3043 -16.2235 -10.9556 -10.9061  -8.3233  -8.2923  -4.1657  -3.5349
     2.7058   3.1747   7.9653   8.4075   9.1771   9.5243   9.6807  10.0006

     occupation numbers 
     1.0000   1.0000   1.0000   1.0000   1.0000   1.0000   1.0000   1.0000
     0.0000   0.0000   0.0000   0.0000   0.0000   0.0000   0.0000   0.0000

          k =-0.3333 0.3849 0.0000 (  3041 PWs)   bands (ev):

   -15.5876 -15.5106 -11.9074 -11.8530  -8.5578  -8.5262  -3.4353  -2.8396
     1.7600   2.2779   8.9480   9.4047   9.4316   9.5991  10.1763  10.5964

     occupation numbers 
     1.0000   1.0000   1.0000   1.0000   1.0000   1.0000   1.0000   1.0000
     0.0000   0.0000   0.0000   0.0000   0.0000   0.0000   0.0000   0.0000

          k = 0.5000 0.0962 0.0000 (  3041 PWs)   bands (ev):

   -15.5875 -15.5106 -11.9073 -11.8529  -8.5579  -8.5263  -3.4354  -2.8397
     1.7603   2.2782   8.9478   9.4046   9.4316   9.5990  10.1762  10.5963

     occupation numbers 
     1.0000   1.0000   1.0000   1.0000   1.0000   1.0000   1.0000   1.0000
     0.0000   0.0000   0.0000   0.0000   0.0000   0.0000   0.0000   0.0000

          k =-0.3750 0.4090 0.0000 (  3024 PWs)   bands (ev):

   -14.8463 -14.7730 -12.7975 -12.7388  -8.6963  -8.6642  -2.8012  -2.2449
     0.9910   1.5578   9.3090   9.5292  10.0876  10.4731  10.6671  11.5172

     occupation numbers 
     1.0000   1.0000   1.0000   1.0000   1.0000   1.0000   1.0000   1.0000
     0.0000   0.0000   0.0000   0.0000   0.0000   0.0000   0.0000   0.0000

          k = 0.5417 0.1203 0.0000 (  3024 PWs)   bands (ev):

   -14.8463 -14.7730 -12.7975 -12.7388  -8.6963  -8.6643  -2.8013  -2.2450
     0.9912   1.5579   9.3089   9.5291  10.0877  10.4730  10.6670  11.5171

     occupation numbers 
     1.0000   1.0000   1.0000   1.0000   1.0000   1.0000   1.0000   1.0000
     0.0000   0.0000   0.0000   0.0000   0.0000   0.0000   0.0000   0.0000

          k =-0.4167 0.4330 0.0000 (  3008 PWs)   bands (ev):

   -14.3558 -14.2837 -13.3388 -13.2785  -8.7421  -8.7099  -2.5169  -1.9833
     0.6608   1.2537   9.2953   9.5083  10.7481  11.0786  11.3254  11.3482

     occupation numbers 
     1.0000   1.0000   1.0000   1.0000   1.0000   1.0000   1.0000   1.0000
     0.0000   0.0000   0.0000   0.0000   0.0000   0.0000   0.0000   0.0000

          k = 0.4167 0.0000 0.0000 (  3037 PWs)   bands (ev):

   -17.0023 -16.9174  -9.7276  -9.6850  -8.2343  -8.2024  -4.9262  -4.2644
     3.8245   4.2303   7.0010   7.4312   8.1925   9.2281   9.3682  10.4113

     occupation numbers 
     1.0000   1.0000   1.0000   1.0000   1.0000   1.0000   1.0000   1.0000
     0.0000   0.0000   0.0000   0.0000   0.0000   0.0000   0.0000   0.0000

          k =-0.2500 0.3849 0.0000 (  3045 PWs)   bands (ev):

   -16.3814 -16.3002 -10.4830 -10.4362  -8.7837  -8.7492  -4.2331  -3.5970
     2.9088   3.3419   7.8610   8.2873   9.0734   9.8252  10.2335  10.5940

     occupation numbers 
     1.0000   1.0000   1.0000   1.0000   1.0000   1.0000   1.0000   1.0000
     0.0000   0.0000   0.0000   0.0000   0.0000   0.0000   0.0000   0.0000

          k = 0.4583 0.0241 0.0000 (  3045 PWs)   bands (ev):

   -16.3814 -16.3001 -10.4825 -10.4358  -8.7842  -8.7498  -4.2332  -3.5972
     2.9092   3.3423   7.8610   8.2873   9.0733   9.8251  10.2334  10.5932

     occupation numbers 
     1.0000   1.0000   1.0000   1.0000   1.0000   1.0000   1.0000   1.0000
     0.0000   0.0000   0.0000   0.0000   0.0000   0.0000   0.0000   0.0000

          k =-0.2917 0.4090 0.0000 (  3026 PWs)   bands (ev):

   -15.6979 -15.6205 -11.3317 -11.2804  -9.1552  -9.1192  -3.5015  -2.8963
     1.9992   2.4669   8.8124   9.2252   9.9387  10.2911  10.5578  10.7791

     occupation numbers 
     1.0000   1.0000   1.0000   1.0000   1.0000   1.0000   1.0000   1.0000
     0.0000   0.0000   0.0000   0.0000   0.0000   0.0000   0.0000   0.0000

          k = 0.5000 0.0481 0.0000 (  3026 PWs)   bands (ev):

   -15.6978 -15.6205 -11.3315 -11.2801  -9.1555  -9.1195  -3.5017  -2.8964
     1.9995   2.4672   8.8123   9.2252   9.9386  10.2910  10.5575  10.7787

     occupation numbers 
     1.0000   1.0000   1.0000   1.0000   1.0000   1.0000   1.0000   1.0000
     0.0000   0.0000   0.0000   0.0000   0.0000   0.0000   0.0000   0.0000

          k =-0.3333 0.4330 0.0000 (  3018 PWs)   bands (ev):

   -14.9689 -14.8955 -12.2024 -12.1465  -9.3819  -9.3451  -2.7898  -2.2204
     1.1620   1.6699   9.8270  10.1423  10.2057  10.4938  10.7006  11.2881

     occupation numbers 
     1.0000   1.0000   1.0000   1.0000   1.0000   1.0000   1.0000   1.0000
     0.0000   0.0000   0.0000   0.0000   0.0000   0.0000   0.0000   0.0000

          k = 0.5417 0.0722 0.0000 (  3018 PWs)   bands (ev):

   -14.9689 -14.8955 -12.2023 -12.1463  -9.3820  -9.3452  -2.7899  -2.2206
     1.1623   1.6702   9.8269  10.1422  10.2056  10.4938  10.7004  11.2882

     occupation numbers 
     1.0000   1.0000   1.0000   1.0000   1.0000   1.0000   1.0000   1.0000
     0.0000   0.0000   0.0000   0.0000   0.0000   0.0000   0.0000   0.0000

          k =-0.3750 0.4571 0.0000 (  3019 PWs)   bands (ev):

   -14.2788 -14.2083 -12.9717 -12.9124  -9.4899  -9.4527  -2.2643  -1.7294
     0.5715   1.1167  10.1051  10.4317  10.6529  10.9504  11.0845  11.9970

     occupation numbers 
     1.0000   1.0000   1.0000   1.0000   1.0000   1.0000   1.0000   1.0000
     0.0000   0.0000   0.0000   0.0000   0.0000   0.0000   0.0000   0.0000

          k = 0.5833 0.0962 0.0000 (  3019 PWs)   bands (ev):

   -14.2789 -14.2083 -12.9716 -12.9123  -9.4900  -9.4528  -2.2644  -1.7295
     0.5716   1.1168  10.1051  10.4315  10.6528  10.9506  11.0844  11.9969

     occupation numbers 
     1.0000   1.0000   1.0000   1.0000   1.0000   1.0000   1.0000   1.0000
     0.0000   0.0000   0.0000   0.0000   0.0000   0.0000   0.0000   0.0000

          k = 0.5000 0.0000 0.0000 (  3033 PWs)   bands (ev):

   -15.7350 -15.6575 -11.0335 -10.9837  -9.4634  -9.4255  -3.5251  -2.9166
     2.0897   2.5377   8.7607   9.1614   9.8448  10.2218  11.1185  11.3821

     occupation numbers 
     1.0000   1.0000   1.0000   1.0000   1.0000   1.0000   1.0000   1.0000
     0.0000   0.0000   0.0000   0.0000   0.0000   0.0000   0.0000   0.0000

          k =-0.2917 0.4571 0.0000 (  3019 PWs)   bands (ev):

   -15.0349 -14.9613 -11.7087 -11.6550  -9.9239  -9.8839  -2.7915  -2.2143
     1.2766   1.7470   9.7356   9.8834  10.0640  11.1359  11.5599  11.8287

     occupation numbers 
     1.0000   1.0000   1.0000   1.0000   1.0000   1.0000   1.0000   1.0000
     0.0000   0.0000   0.0000   0.0000   0.0000   0.0000   0.0000   0.0000

          k = 0.5417 0.0241 0.0000 (  3019 PWs)   bands (ev):

   -15.0349 -14.9613 -11.7083 -11.6546  -9.9243  -9.8843  -2.7918  -2.2146
     1.2770   1.7475   9.7355   9.8832  10.0639  11.1358  11.5598  11.8278

     occupation numbers 
     1.0000   1.0000   1.0000   1.0000   1.0000   1.0000   1.0000   1.0000
     0.0000   0.0000   0.0000   0.0000   0.0000   0.0000   0.0000   0.0000

          k =-0.3333 0.4811 0.0000 (  3013 PWs)   bands (ev):

   -14.3139 -14.2440 -12.4532 -12.3956 -10.1690 -10.1278  -2.1139  -1.5706
     0.5508   1.0502   9.7470  10.7427  10.8313  11.4752  11.8053  12.2605

     occupation numbers 
     1.0000   1.0000   1.0000   1.0000   1.0000   1.0000   1.0000   1.0000
     0.0000   0.0000   0.0000   0.0000   0.0000   0.0000   0.0000   0.0000

          k = 0.5833 0.0481 0.0000 (  3013 PWs)   bands (ev):

   -14.3139 -14.2440 -12.4530 -12.3954 -10.1692 -10.1280  -2.1141  -1.5708
     0.5511   1.0505   9.7469  10.7426  10.8312  11.4755  11.8050  12.2605

     occupation numbers 
     1.0000   1.0000   1.0000   1.0000   1.0000   1.0000   1.0000   1.0000
     0.0000   0.0000   0.0000   0.0000   0.0000   0.0000   0.0000   0.0000

          k =-0.3750 0.5052 0.0000 (  3008 PWs)   bands (ev):

   -13.8302 -13.7621 -12.9520 -12.8925 -10.2445 -10.2029  -1.7731  -1.2513
     0.1937   0.7131   9.6880  11.1186  11.3589  11.5922  11.8439  12.0522

     occupation numbers 
     1.0000   1.0000   1.0000   1.0000   1.0000   1.0000   1.0000   1.0000
     0.0000   0.0000   0.0000   0.0000   0.0000   0.0000   0.0000   0.0000

          k = 0.5833 0.0000 0.0000 (  3011 PWs)   bands (ev):

   -14.3340 -14.2642 -12.1621 -12.1054 -10.5072 -10.4645  -2.0654  -1.5174
     0.5520   1.0323   9.6016  10.7009  10.7431  12.1379  12.1602  12.2349

     occupation numbers 
     1.0000   1.0000   1.0000   1.0000   1.0000   1.0000   1.0000   1.0000
     0.0000   0.0000   0.0000   0.0000   0.0000   0.0000   0.0000   0.0000

          k =-0.3333 0.5292 0.0000 (  3000 PWs)   bands (ev):

   -13.6620 -13.5956 -12.7128 -12.6529 -10.8005 -10.7565  -1.4261  -0.9056
    -0.0836   0.4137   9.4244  11.0026  11.5790  12.0454  12.5734  12.6654

     occupation numbers 
     1.0000   1.0000   1.0000   1.0000   1.0000   1.0000   1.0000   1.0000
     0.0000   0.0000   0.0000   0.0000   0.0000   0.0000   0.0000   0.0000

          k = 0.6250 0.0241 0.0000 (  3000 PWs)   bands (ev):

   -13.6621 -13.5957 -12.7126 -12.6527 -10.8006 -10.7566  -1.4263  -0.9058
    -0.0833   0.4140   9.4243  11.0025  11.5787  12.0461  12.5727  12.6649

     occupation numbers 
     1.0000   1.0000   1.0000   1.0000   1.0000   1.0000   1.0000   1.0000
     0.0000   0.0000   0.0000   0.0000   0.0000   0.0000   0.0000   0.0000

     the Fermi energy is    -0.3506 ev

!    total energy              =     -45.57884131 Ry
     Harris-Foulkes estimate   =     -45.57884129 Ry
     estimated scf accuracy    <          1.5E-11 Ry

     The total energy is the sum of the following terms:

     one-electron contribution =    -520.05619385 Ry
     hartree contribution      =     263.50183774 Ry
     xc contribution           =     -14.03093455 Ry
     ewald contribution        =     225.00644935 Ry
     smearing contrib. (-TS)   =       0.00000000 Ry

     total magnetization       =    -0.00 Bohr mag/cell
     absolute magnetization    =     0.00 Bohr mag/cell

     convergence has been achieved in  12 iterations

     Forces acting on atoms (Ry/au):

     atom    1 type  1   force =     0.00000000   -0.00011273   -0.00223386
     atom    2 type  1   force =     0.00000000    0.00011273   -0.00223386
     atom    3 type  1   force =     0.00000000   -0.00011272    0.00223386
     atom    4 type  1   force =     0.00000000    0.00011272    0.00223386
     The non-local contrib.  to forces
     atom    1 type  1   force =     0.00000000   -0.00003849   -0.00145021
     atom    2 type  1   force =     0.00000000    0.00003850   -0.00145022
     atom    3 type  1   force =     0.00000000   -0.00003849    0.00143955
     atom    4 type  1   force =     0.00000000    0.00003850    0.00143955
     The ionic contribution  to forces
     atom    1 type  1   force =     0.00000000   -0.00037336  -13.84074850
     atom    2 type  1   force =     0.00000000    0.00037336  -13.84074850
     atom    3 type  1   force =     0.00000000   -0.00037336   13.84074850
     atom    4 type  1   force =    -0.00000000    0.00037336   13.84074850
     The local contribution  to forces
     atom    1 type  1   force =     0.00000000    0.00029937   13.83995462
     atom    2 type  1   force =    -0.00000000   -0.00029937   13.83995462
     atom    3 type  1   force =    -0.00000000    0.00029940  -13.83995664
     atom    4 type  1   force =    -0.00000000   -0.00029939  -13.83995664
     The core correction contribution to forces
     atom    1 type  1   force =     0.00000000    0.00000000    0.00000000
     atom    2 type  1   force =     0.00000000    0.00000000    0.00000000
     atom    3 type  1   force =     0.00000000    0.00000000    0.00000000
     atom    4 type  1   force =     0.00000000    0.00000000    0.00000000
     The Hubbard contrib.    to forces
     atom    1 type  1   force =     0.00000000    0.00000000    0.00000000
     atom    2 type  1   force =     0.00000000    0.00000000    0.00000000
     atom    3 type  1   force =     0.00000000    0.00000000    0.00000000
     atom    4 type  1   force =     0.00000000    0.00000000    0.00000000
     The SCF correction term to forces
     atom    1 type  1   force =     0.00000000   -0.00000024    0.00000463
     atom    2 type  1   force =    -0.00000000    0.00000024    0.00000464
     atom    3 type  1   force =    -0.00000000   -0.00000026   -0.00000315
     atom    4 type  1   force =     0.00000000    0.00000026   -0.00000316

     Total force =     0.004473     Total SCF correction =     0.000008


     entering subroutine stress ...

          total   stress  (Ry/bohr**3)                   (kbar)     P=   -4.94
  -0.00006826   0.00000000   0.00000000        -10.04      0.00      0.00
   0.00000000  -0.00006800  -0.00000000          0.00    -10.00     -0.00
   0.00000000  -0.00000000   0.00003545          0.00     -0.00      5.22

     kinetic stress (kbar)   3524.94      0.00      0.00
                                0.00   3524.82     -0.00
                                0.00     -0.00   4089.15

     local   stress (kbar)-111296.71      0.00      0.00
                                0.00-111297.39     -0.00
                                0.00     -0.00 113617.78

     nonloc. stress (kbar)   -152.59     -0.00      0.00
                               -0.00   -152.58     -0.00
                                0.00     -0.00   -151.59

     hartree stress (kbar)  54127.45     -0.00      0.00
                               -0.00  54127.54      0.00
                                0.00      0.00 -53782.79

     exc-cor stress (kbar)   -891.24      0.00      0.00
                                0.00   -891.24     -0.00
                                0.00     -0.00   -924.65

     corecor stress (kbar)      0.00      0.00      0.00
                                0.00      0.00      0.00
                                0.00      0.00      0.00

     ewald   stress (kbar)  54678.12      0.00     -0.00
                                0.00  54678.84      0.00
                               -0.00      0.00 -62842.69

     hubbard stress (kbar)      0.00      0.00      0.00
                                0.00      0.00      0.00
                                0.00      0.00      0.00

     london  stress (kbar)      0.00      0.00      0.00
                                0.00      0.00      0.00
                                0.00      0.00      0.00

     XDM     stress (kbar)      0.00      0.00      0.00
                                0.00      0.00      0.00
                                0.00      0.00      0.00

     dft-nl  stress (kbar)      0.00      0.00      0.00
                                0.00      0.00      0.00
                                0.00      0.00      0.00



     Writing output data file gra.spin.save

     init_run     :     16.88s CPU     16.97s WALL (       1 calls)
     electrons    :    574.21s CPU    576.39s WALL (       1 calls)
     forces       :      8.00s CPU      8.00s WALL (       1 calls)
     stress       :     16.94s CPU     16.96s WALL (       1 calls)

     Called by init_run:
     wfcinit      :     14.85s CPU     14.90s WALL (       1 calls)
     potinit      :      0.85s CPU      0.87s WALL (       1 calls)

     Called by electrons:
     c_bands      :    490.54s CPU    492.36s WALL (      12 calls)
     sum_band     :     70.97s CPU     71.28s WALL (      12 calls)
     v_of_rho     :      8.26s CPU      8.28s WALL (      13 calls)
     v_h          :      0.16s CPU      0.16s WALL (      13 calls)
     v_xc         :      8.10s CPU      8.13s WALL (      13 calls)
     newd         :      4.30s CPU      4.31s WALL (      13 calls)
     mix_rho      :      0.60s CPU      0.60s WALL (      12 calls)

     Called by c_bands:
     init_us_2    :      9.49s CPU      9.54s WALL (    8478 calls)
     cegterg      :    474.80s CPU    476.49s WALL (    3768 calls)

     Called by sum_band:
     sum_band:bec :      0.07s CPU      0.07s WALL (    3768 calls)
     addusdens    :      4.64s CPU      4.65s WALL (      12 calls)

     Called by *egterg:
     h_psi        :    287.06s CPU    288.48s WALL (   15276 calls)
     s_psi        :     41.88s CPU     41.97s WALL (   15276 calls)
     g_psi        :      1.95s CPU      1.95s WALL (   11194 calls)
     cdiaghg      :     13.56s CPU     13.58s WALL (   14962 calls)
     cegterg:over :     57.09s CPU     57.18s WALL (   11194 calls)
     cegterg:upda :     35.59s CPU     35.66s WALL (   11194 calls)
     cegterg:last :     22.79s CPU     22.83s WALL (    3868 calls)

     Called by h_psi:
     h_psi:vloc   :    197.79s CPU    198.98s WALL (   15276 calls)
     h_psi:vnl    :     87.77s CPU     88.00s WALL (   15276 calls)
     add_vuspsi   :     42.08s CPU     42.15s WALL (   15276 calls)

     General routines
     calbec       :     65.84s CPU     66.09s WALL (   19672 calls)
     fft          :      3.97s CPU      3.99s WALL (     406 calls)
     ffts         :      0.04s CPU      0.04s WALL (      50 calls)
     fftw         :    167.46s CPU    168.43s WALL (  367722 calls)
     interpolate  :      0.57s CPU      0.57s WALL (      50 calls)

     Parallel routines
     fft_scatter  :     29.52s CPU     29.69s WALL (  368178 calls)

     PWSCF        : 10m17.44s CPU    10m20.09s WALL


   This run was terminated on:  17:33:17  30Apr2020            

=------------------------------------------------------------------------------=
   JOB DONE.
=------------------------------------------------------------------------------=
