
     Program PWSCF v.5.1 starts on 21Apr2020 at 15: 6:10 

     This program is part of the open-source Quantum ESPRESSO suite
     for quantum simulation of materials; please cite
         "P. Giannozzi et al., J. Phys.:Condens. Matter 21 395502 (2009);
          URL http://www.quantum-espresso.org", 
     in publications or presentations arising from this work. More details at
     http://www.quantum-espresso.org/quote

     Parallel version (MPI), running on     1 processors
     Waiting for input...
     Reading input from standard input

     Current dimensions of program PWSCF are:
     Max number of different atomic species (ntypx) = 10
     Max number of k-points (npk) =  40000
     Max angular momentum in pseudopotentials (lmaxx) =  3

     Atomic positions and unit cell read from directory:
     ../tmp/g.dos1.save/


     IMPORTANT: XC functional enforced from input :
     Exchange-correlation      = PBE ( 1  4  3  4 0)
     Any further DFT definition will be discarded
     Please, verify this is what you really want

               file C.pbe-rrkjus.UPF: wavefunction(s)  2S 2P renormalized

     Subspace diagonalization in iterative solution of the eigenvalue problem:
     a serial algorithm will be used


     G-vector sticks info
     --------------------
     sticks:   dense  smooth     PW     G-vecs:    dense   smooth      PW
     Sum         595     241     85                96043    24369    4587

     Generating pointlists ...
     new r_m :   0.2381 (alat units)  1.1104 (a.u.) for type    1


     bravais-lattice index     =           12
     lattice parameter (alat)  =       4.6627  a.u.
     unit-cell volume          =     711.6007 (a.u.)^3
     number of atoms/cell      =            4
     number of atomic types    =            1
     number of electrons       =        16.00
     number of Kohn-Sham states=           12
     kinetic-energy cutoff     =      40.0000  Ry
     charge density cutoff     =     400.0000  Ry
     Exchange-correlation      = PBE ( 1  4  3  4 0)

     celldm(1)=   4.662710  celldm(2)=   1.000000  celldm(3)=   8.105698
     celldm(4)=  -0.500000  celldm(5)=   0.000000  celldm(6)=   0.000000

     crystal axes: (cart. coord. in units of alat)
               a(1) = (   1.000000   0.000000   0.000000 )  
               a(2) = (  -0.500000   0.866025   0.000000 )  
               a(3) = (   0.000000   0.000000   8.105698 )  

     reciprocal axes: (cart. coord. in units 2 pi/alat)
               b(1) = (  1.000000  0.577350 -0.000000 )  
               b(2) = (  0.000000  1.154701  0.000000 )  
               b(3) = (  0.000000 -0.000000  0.123370 )  


     PseudoPot. # 1 for C  read from file:
     ../pseudo/C.pbe-rrkjus.UPF
     MD5 check sum: 00fb224312de0c5b6853bd333518df6f
     Pseudo is Ultrasoft, Zval =  4.0
     Generated by new atomic code, or converted to UPF format
     Using radial grid of  627 points,  4 beta functions with: 
                l(1) =   0
                l(2) =   0
                l(3) =   1
                l(4) =   1
     Q(r) pseudized with 0 coefficients 


     atomic species   valence    mass     pseudopotential
        C              4.00    12.01100     C ( 1.00)

     Starting magnetic structure 
     atomic species   magnetization
        C           -0.500

     No symmetry found
          (note:  3 additional sym.ops. were found but ignored
           their fractional translations are incommensurate with FFT grid)

                                    s                        frac. trans.

      isym =  1     identity                                     

 cryst.   s( 1) = (     1          0          0      )
                  (     0          1          0      )
                  (     0          0          1      )

 cart.    s( 1) = (  1.0000000  0.0000000  0.0000000 )
                  (  0.0000000  1.0000000  0.0000000 )
                  (  0.0000000  0.0000000  1.0000000 )


     point group C_1 (1)    
     there are  1 classes
     the character table:

       E    
A      1.00

     the symmetry operations in each class:
     E        1

   Cartesian axes

     site n.     atom                  positions (alat units)
         1           C   tau(   1) = (   0.0000000   0.0000000   2.0264246  )
         2           C   tau(   2) = (   0.0000000   0.5773284   2.0264246  )
         3           C   tau(   3) = (   0.7295128   0.0000000   3.3962876  )
         4           C   tau(   4) = (   0.7295128   0.5773284   3.3962876  )

   Crystallographic axes

     site n.     atom                  positions (cryst. coord.)
         1           C   tau(   1) = (  0.0000000  0.0000000  0.2500000  )
         2           C   tau(   2) = (  0.3333207  0.6666414  0.2500000  )
         3           C   tau(   3) = (  0.7295128  0.0000000  0.4190000  )
         4           C   tau(   4) = (  1.0628335  0.6666414  0.4190000  )

     number of k points=   148  Marzari-Vanderbilt smearing, width (Ry)=  0.0001
                       cart. coord. in units 2pi/alat
        k(    1) = (   0.0000000   0.0000000   0.0000000), wk =   0.0069444
        k(    2) = (   0.0000000   0.0962250   0.0000000), wk =   0.0138889
        k(    3) = (   0.0000000   0.1924501   0.0000000), wk =   0.0138889
        k(    4) = (   0.0000000   0.2886751   0.0000000), wk =   0.0138889
        k(    5) = (   0.0000000   0.3849002   0.0000000), wk =   0.0138889
        k(    6) = (   0.0000000   0.4811252   0.0000000), wk =   0.0138889
        k(    7) = (   0.0000000  -0.5773503   0.0000000), wk =   0.0069444
        k(    8) = (   0.0833333   0.1443376   0.0000000), wk =   0.0138889
        k(    9) = (   0.0833333   0.2405626   0.0000000), wk =   0.0138889
        k(   10) = (   0.0833333   0.3367877   0.0000000), wk =   0.0138889
        k(   11) = (   0.0833333   0.4330127   0.0000000), wk =   0.0138889
        k(   12) = (   0.0833333   0.5292377   0.0000000), wk =   0.0138889
        k(   13) = (   0.1666667   0.2886751   0.0000000), wk =   0.0138889
        k(   14) = (   0.1666667   0.3849002   0.0000000), wk =   0.0138889
        k(   15) = (   0.1666667   0.4811252   0.0000000), wk =   0.0138889
        k(   16) = (   0.1666667   0.5773503   0.0000000), wk =   0.0138889
        k(   17) = (   0.2500000   0.4330127   0.0000000), wk =   0.0138889
        k(   18) = (   0.2500000   0.5292377   0.0000000), wk =   0.0138889
        k(   19) = (   0.3333333   0.5773503   0.0000000), wk =   0.0138889
        k(   20) = (  -0.0833333   0.0481125   0.0000000), wk =   0.0138889
        k(   21) = (   0.0833333   0.0481125   0.0000000), wk =   0.0138889
        k(   22) = (  -0.1666667   0.0962250   0.0000000), wk =   0.0138889
        k(   23) = (   0.1666667   0.0962250   0.0000000), wk =   0.0138889
        k(   24) = (  -0.2500000   0.1443376   0.0000000), wk =   0.0138889
        k(   25) = (   0.2500000   0.1443376   0.0000000), wk =   0.0138889
        k(   26) = (  -0.3333333   0.1924501   0.0000000), wk =   0.0138889
        k(   27) = (   0.3333333   0.1924501   0.0000000), wk =   0.0138889
        k(   28) = (  -0.4166667   0.2405626   0.0000000), wk =   0.0138889
        k(   29) = (   0.4166667   0.2405626   0.0000000), wk =   0.0138889
        k(   30) = (   0.5000000  -0.2886751   0.0000000), wk =   0.0069444
        k(   31) = (  -0.5000000  -0.2886751   0.0000000), wk =   0.0069444
        k(   32) = (  -0.0833333   0.1443376   0.0000000), wk =   0.0138889
        k(   33) = (   0.1666667  -0.0000000   0.0000000), wk =   0.0138889
        k(   34) = (  -0.0833333   0.2405626   0.0000000), wk =   0.0138889
        k(   35) = (  -0.1666667   0.1924501   0.0000000), wk =   0.0138889
        k(   36) = (   0.2500000   0.0481125   0.0000000), wk =   0.0138889
        k(   37) = (  -0.1666667  -0.1924501   0.0000000), wk =   0.0138889
        k(   38) = (   0.2500000  -0.0481125   0.0000000), wk =   0.0138889
        k(   39) = (  -0.0833333   0.3367877   0.0000000), wk =   0.0138889
        k(   40) = (  -0.2500000   0.2405626   0.0000000), wk =   0.0138889
        k(   41) = (   0.3333333   0.0962250   0.0000000), wk =   0.0138889
        k(   42) = (  -0.2500000  -0.2405626   0.0000000), wk =   0.0138889
        k(   43) = (   0.3333333  -0.0962250   0.0000000), wk =   0.0138889
        k(   44) = (  -0.0833333   0.4330127   0.0000000), wk =   0.0138889
        k(   45) = (  -0.3333333   0.2886751   0.0000000), wk =   0.0138889
        k(   46) = (   0.4166667   0.1443376   0.0000000), wk =   0.0138889
        k(   47) = (  -0.3333333  -0.2886751   0.0000000), wk =   0.0138889
        k(   48) = (   0.4166667  -0.1443376   0.0000000), wk =   0.0138889
        k(   49) = (  -0.0833333   0.5292377   0.0000000), wk =   0.0138889
        k(   50) = (  -0.4166667   0.3367877   0.0000000), wk =   0.0138889
        k(   51) = (   0.5000000   0.1924501   0.0000000), wk =   0.0138889
        k(   52) = (  -0.4166667  -0.3367877   0.0000000), wk =   0.0138889
        k(   53) = (   0.5000000  -0.1924501   0.0000000), wk =   0.0138889
        k(   54) = (  -0.1666667   0.2886751   0.0000000), wk =   0.0138889
        k(   55) = (   0.3333333  -0.0000000   0.0000000), wk =   0.0138889
        k(   56) = (  -0.1666667   0.3849002   0.0000000), wk =   0.0138889
        k(   57) = (  -0.2500000   0.3367877   0.0000000), wk =   0.0138889
        k(   58) = (   0.4166667   0.0481125   0.0000000), wk =   0.0138889
        k(   59) = (  -0.2500000  -0.3367877   0.0000000), wk =   0.0138889
        k(   60) = (   0.4166667  -0.0481125   0.0000000), wk =   0.0138889
        k(   61) = (  -0.1666667   0.4811252   0.0000000), wk =   0.0138889
        k(   62) = (  -0.3333333   0.3849002   0.0000000), wk =   0.0138889
        k(   63) = (   0.5000000   0.0962250   0.0000000), wk =   0.0138889
        k(   64) = (  -0.3333333  -0.3849002   0.0000000), wk =   0.0138889
        k(   65) = (   0.5000000  -0.0962250   0.0000000), wk =   0.0138889
        k(   66) = (  -0.4166667   0.4330127   0.0000000), wk =   0.0138889
        k(   67) = (   0.5833333   0.1443376   0.0000000), wk =   0.0138889
        k(   68) = (  -0.2500000   0.4330127   0.0000000), wk =   0.0138889
        k(   69) = (   0.5000000  -0.0000000   0.0000000), wk =   0.0138889
        k(   70) = (  -0.2500000   0.5292377   0.0000000), wk =   0.0138889
        k(   71) = (  -0.3333333   0.4811252   0.0000000), wk =   0.0138889
        k(   72) = (   0.5833333   0.0481125   0.0000000), wk =   0.0138889
        k(   73) = (  -0.3333333  -0.4811252   0.0000000), wk =   0.0138889
        k(   74) = (   0.5833333  -0.0481125   0.0000000), wk =   0.0138889
        k(   75) = (   0.0000000   0.0000000   0.0000000), wk =   0.0069444
        k(   76) = (   0.0000000   0.0962250   0.0000000), wk =   0.0138889
        k(   77) = (   0.0000000   0.1924501   0.0000000), wk =   0.0138889
        k(   78) = (   0.0000000   0.2886751   0.0000000), wk =   0.0138889
        k(   79) = (   0.0000000   0.3849002   0.0000000), wk =   0.0138889
        k(   80) = (   0.0000000   0.4811252   0.0000000), wk =   0.0138889
        k(   81) = (   0.0000000  -0.5773503   0.0000000), wk =   0.0069444
        k(   82) = (   0.0833333   0.1443376   0.0000000), wk =   0.0138889
        k(   83) = (   0.0833333   0.2405626   0.0000000), wk =   0.0138889
        k(   84) = (   0.0833333   0.3367877   0.0000000), wk =   0.0138889
        k(   85) = (   0.0833333   0.4330127   0.0000000), wk =   0.0138889
        k(   86) = (   0.0833333   0.5292377   0.0000000), wk =   0.0138889
        k(   87) = (   0.1666667   0.2886751   0.0000000), wk =   0.0138889
        k(   88) = (   0.1666667   0.3849002   0.0000000), wk =   0.0138889
        k(   89) = (   0.1666667   0.4811252   0.0000000), wk =   0.0138889
        k(   90) = (   0.1666667   0.5773503   0.0000000), wk =   0.0138889
        k(   91) = (   0.2500000   0.4330127   0.0000000), wk =   0.0138889
        k(   92) = (   0.2500000   0.5292377   0.0000000), wk =   0.0138889
        k(   93) = (   0.3333333   0.5773503   0.0000000), wk =   0.0138889
        k(   94) = (  -0.0833333   0.0481125   0.0000000), wk =   0.0138889
        k(   95) = (   0.0833333   0.0481125   0.0000000), wk =   0.0138889
        k(   96) = (  -0.1666667   0.0962250   0.0000000), wk =   0.0138889
        k(   97) = (   0.1666667   0.0962250   0.0000000), wk =   0.0138889
        k(   98) = (  -0.2500000   0.1443376   0.0000000), wk =   0.0138889
        k(   99) = (   0.2500000   0.1443376   0.0000000), wk =   0.0138889
        k(  100) = (  -0.3333333   0.1924501   0.0000000), wk =   0.0138889
        k(  101) = (   0.3333333   0.1924501   0.0000000), wk =   0.0138889
        k(  102) = (  -0.4166667   0.2405626   0.0000000), wk =   0.0138889
        k(  103) = (   0.4166667   0.2405626   0.0000000), wk =   0.0138889
        k(  104) = (   0.5000000  -0.2886751   0.0000000), wk =   0.0069444
        k(  105) = (  -0.5000000  -0.2886751   0.0000000), wk =   0.0069444
        k(  106) = (  -0.0833333   0.1443376   0.0000000), wk =   0.0138889
        k(  107) = (   0.1666667  -0.0000000   0.0000000), wk =   0.0138889
        k(  108) = (  -0.0833333   0.2405626   0.0000000), wk =   0.0138889
        k(  109) = (  -0.1666667   0.1924501   0.0000000), wk =   0.0138889
        k(  110) = (   0.2500000   0.0481125   0.0000000), wk =   0.0138889
        k(  111) = (  -0.1666667  -0.1924501   0.0000000), wk =   0.0138889
        k(  112) = (   0.2500000  -0.0481125   0.0000000), wk =   0.0138889
        k(  113) = (  -0.0833333   0.3367877   0.0000000), wk =   0.0138889
        k(  114) = (  -0.2500000   0.2405626   0.0000000), wk =   0.0138889
        k(  115) = (   0.3333333   0.0962250   0.0000000), wk =   0.0138889
        k(  116) = (  -0.2500000  -0.2405626   0.0000000), wk =   0.0138889
        k(  117) = (   0.3333333  -0.0962250   0.0000000), wk =   0.0138889
        k(  118) = (  -0.0833333   0.4330127   0.0000000), wk =   0.0138889
        k(  119) = (  -0.3333333   0.2886751   0.0000000), wk =   0.0138889
        k(  120) = (   0.4166667   0.1443376   0.0000000), wk =   0.0138889
        k(  121) = (  -0.3333333  -0.2886751   0.0000000), wk =   0.0138889
        k(  122) = (   0.4166667  -0.1443376   0.0000000), wk =   0.0138889
        k(  123) = (  -0.0833333   0.5292377   0.0000000), wk =   0.0138889
        k(  124) = (  -0.4166667   0.3367877   0.0000000), wk =   0.0138889
        k(  125) = (   0.5000000   0.1924501   0.0000000), wk =   0.0138889
        k(  126) = (  -0.4166667  -0.3367877   0.0000000), wk =   0.0138889
        k(  127) = (   0.5000000  -0.1924501   0.0000000), wk =   0.0138889
        k(  128) = (  -0.1666667   0.2886751   0.0000000), wk =   0.0138889
        k(  129) = (   0.3333333  -0.0000000   0.0000000), wk =   0.0138889
        k(  130) = (  -0.1666667   0.3849002   0.0000000), wk =   0.0138889
        k(  131) = (  -0.2500000   0.3367877   0.0000000), wk =   0.0138889
        k(  132) = (   0.4166667   0.0481125   0.0000000), wk =   0.0138889
        k(  133) = (  -0.2500000  -0.3367877   0.0000000), wk =   0.0138889
        k(  134) = (   0.4166667  -0.0481125   0.0000000), wk =   0.0138889
        k(  135) = (  -0.1666667   0.4811252   0.0000000), wk =   0.0138889
        k(  136) = (  -0.3333333   0.3849002   0.0000000), wk =   0.0138889
        k(  137) = (   0.5000000   0.0962250   0.0000000), wk =   0.0138889
        k(  138) = (  -0.3333333  -0.3849002   0.0000000), wk =   0.0138889
        k(  139) = (   0.5000000  -0.0962250   0.0000000), wk =   0.0138889
        k(  140) = (  -0.4166667   0.4330127   0.0000000), wk =   0.0138889
        k(  141) = (   0.5833333   0.1443376   0.0000000), wk =   0.0138889
        k(  142) = (  -0.2500000   0.4330127   0.0000000), wk =   0.0138889
        k(  143) = (   0.5000000  -0.0000000   0.0000000), wk =   0.0138889
        k(  144) = (  -0.2500000   0.5292377   0.0000000), wk =   0.0138889
        k(  145) = (  -0.3333333   0.4811252   0.0000000), wk =   0.0138889
        k(  146) = (   0.5833333   0.0481125   0.0000000), wk =   0.0138889
        k(  147) = (  -0.3333333  -0.4811252   0.0000000), wk =   0.0138889
        k(  148) = (   0.5833333  -0.0481125   0.0000000), wk =   0.0138889

                       cryst. coord.
        k(    1) = (   0.0000000   0.0000000   0.0000000), wk =   0.0069444
        k(    2) = (   0.0000000   0.0833333   0.0000000), wk =   0.0138889
        k(    3) = (   0.0000000   0.1666667   0.0000000), wk =   0.0138889
        k(    4) = (   0.0000000   0.2500000   0.0000000), wk =   0.0138889
        k(    5) = (   0.0000000   0.3333333   0.0000000), wk =   0.0138889
        k(    6) = (   0.0000000   0.4166667   0.0000000), wk =   0.0138889
        k(    7) = (   0.0000000  -0.5000000   0.0000000), wk =   0.0069444
        k(    8) = (   0.0833333   0.0833333   0.0000000), wk =   0.0138889
        k(    9) = (   0.0833333   0.1666667   0.0000000), wk =   0.0138889
        k(   10) = (   0.0833333   0.2500000   0.0000000), wk =   0.0138889
        k(   11) = (   0.0833333   0.3333333   0.0000000), wk =   0.0138889
        k(   12) = (   0.0833333   0.4166667   0.0000000), wk =   0.0138889
        k(   13) = (   0.1666667   0.1666667   0.0000000), wk =   0.0138889
        k(   14) = (   0.1666667   0.2500000   0.0000000), wk =   0.0138889
        k(   15) = (   0.1666667   0.3333333   0.0000000), wk =   0.0138889
        k(   16) = (   0.1666667   0.4166667   0.0000000), wk =   0.0138889
        k(   17) = (   0.2500000   0.2500000   0.0000000), wk =   0.0138889
        k(   18) = (   0.2500000   0.3333333   0.0000000), wk =   0.0138889
        k(   19) = (   0.3333333   0.3333333   0.0000000), wk =   0.0138889
        k(   20) = (  -0.0833333   0.0833333   0.0000000), wk =   0.0138889
        k(   21) = (   0.0833333   0.0000000   0.0000000), wk =   0.0138889
        k(   22) = (  -0.1666667   0.1666667   0.0000000), wk =   0.0138889
        k(   23) = (   0.1666667   0.0000000   0.0000000), wk =   0.0138889
        k(   24) = (  -0.2500000   0.2500000   0.0000000), wk =   0.0138889
        k(   25) = (   0.2500000   0.0000000   0.0000000), wk =   0.0138889
        k(   26) = (  -0.3333333   0.3333333   0.0000000), wk =   0.0138889
        k(   27) = (   0.3333333   0.0000000   0.0000000), wk =   0.0138889
        k(   28) = (  -0.4166667   0.4166667   0.0000000), wk =   0.0138889
        k(   29) = (   0.4166667   0.0000000   0.0000000), wk =   0.0138889
        k(   30) = (   0.5000000  -0.5000000   0.0000000), wk =   0.0069444
        k(   31) = (  -0.5000000   0.0000000   0.0000000), wk =   0.0069444
        k(   32) = (  -0.0833333   0.1666667   0.0000000), wk =   0.0138889
        k(   33) = (   0.1666667  -0.0833333   0.0000000), wk =   0.0138889
        k(   34) = (  -0.0833333   0.2500000   0.0000000), wk =   0.0138889
        k(   35) = (  -0.1666667   0.2500000   0.0000000), wk =   0.0138889
        k(   36) = (   0.2500000  -0.0833333   0.0000000), wk =   0.0138889
        k(   37) = (  -0.1666667  -0.0833333   0.0000000), wk =   0.0138889
        k(   38) = (   0.2500000  -0.1666667   0.0000000), wk =   0.0138889
        k(   39) = (  -0.0833333   0.3333333   0.0000000), wk =   0.0138889
        k(   40) = (  -0.2500000   0.3333333   0.0000000), wk =   0.0138889
        k(   41) = (   0.3333333  -0.0833333   0.0000000), wk =   0.0138889
        k(   42) = (  -0.2500000  -0.0833333   0.0000000), wk =   0.0138889
        k(   43) = (   0.3333333  -0.2500000   0.0000000), wk =   0.0138889
        k(   44) = (  -0.0833333   0.4166667   0.0000000), wk =   0.0138889
        k(   45) = (  -0.3333333   0.4166667   0.0000000), wk =   0.0138889
        k(   46) = (   0.4166667  -0.0833333   0.0000000), wk =   0.0138889
        k(   47) = (  -0.3333333  -0.0833333   0.0000000), wk =   0.0138889
        k(   48) = (   0.4166667  -0.3333333   0.0000000), wk =   0.0138889
        k(   49) = (  -0.0833333   0.5000000   0.0000000), wk =   0.0138889
        k(   50) = (  -0.4166667   0.5000000   0.0000000), wk =   0.0138889
        k(   51) = (   0.5000000  -0.0833333   0.0000000), wk =   0.0138889
        k(   52) = (  -0.4166667  -0.0833333   0.0000000), wk =   0.0138889
        k(   53) = (   0.5000000  -0.4166667   0.0000000), wk =   0.0138889
        k(   54) = (  -0.1666667   0.3333333   0.0000000), wk =   0.0138889
        k(   55) = (   0.3333333  -0.1666667   0.0000000), wk =   0.0138889
        k(   56) = (  -0.1666667   0.4166667   0.0000000), wk =   0.0138889
        k(   57) = (  -0.2500000   0.4166667   0.0000000), wk =   0.0138889
        k(   58) = (   0.4166667  -0.1666667   0.0000000), wk =   0.0138889
        k(   59) = (  -0.2500000  -0.1666667   0.0000000), wk =   0.0138889
        k(   60) = (   0.4166667  -0.2500000   0.0000000), wk =   0.0138889
        k(   61) = (  -0.1666667   0.5000000   0.0000000), wk =   0.0138889
        k(   62) = (  -0.3333333   0.5000000   0.0000000), wk =   0.0138889
        k(   63) = (   0.5000000  -0.1666667   0.0000000), wk =   0.0138889
        k(   64) = (  -0.3333333  -0.1666667   0.0000000), wk =   0.0138889
        k(   65) = (   0.5000000  -0.3333333   0.0000000), wk =   0.0138889
        k(   66) = (  -0.4166667   0.5833333   0.0000000), wk =   0.0138889
        k(   67) = (   0.5833333  -0.1666667   0.0000000), wk =   0.0138889
        k(   68) = (  -0.2500000   0.5000000   0.0000000), wk =   0.0138889
        k(   69) = (   0.5000000  -0.2500000   0.0000000), wk =   0.0138889
        k(   70) = (  -0.2500000   0.5833333   0.0000000), wk =   0.0138889
        k(   71) = (  -0.3333333   0.5833333   0.0000000), wk =   0.0138889
        k(   72) = (   0.5833333  -0.2500000   0.0000000), wk =   0.0138889
        k(   73) = (  -0.3333333  -0.2500000   0.0000000), wk =   0.0138889
        k(   74) = (   0.5833333  -0.3333333   0.0000000), wk =   0.0138889
        k(   75) = (   0.0000000   0.0000000   0.0000000), wk =   0.0069444
        k(   76) = (   0.0000000   0.0833333   0.0000000), wk =   0.0138889
        k(   77) = (   0.0000000   0.1666667   0.0000000), wk =   0.0138889
        k(   78) = (   0.0000000   0.2500000   0.0000000), wk =   0.0138889
        k(   79) = (   0.0000000   0.3333333   0.0000000), wk =   0.0138889
        k(   80) = (   0.0000000   0.4166667   0.0000000), wk =   0.0138889
        k(   81) = (   0.0000000  -0.5000000   0.0000000), wk =   0.0069444
        k(   82) = (   0.0833333   0.0833333   0.0000000), wk =   0.0138889
        k(   83) = (   0.0833333   0.1666667   0.0000000), wk =   0.0138889
        k(   84) = (   0.0833333   0.2500000   0.0000000), wk =   0.0138889
        k(   85) = (   0.0833333   0.3333333   0.0000000), wk =   0.0138889
        k(   86) = (   0.0833333   0.4166667   0.0000000), wk =   0.0138889
        k(   87) = (   0.1666667   0.1666667   0.0000000), wk =   0.0138889
        k(   88) = (   0.1666667   0.2500000   0.0000000), wk =   0.0138889
        k(   89) = (   0.1666667   0.3333333   0.0000000), wk =   0.0138889
        k(   90) = (   0.1666667   0.4166667   0.0000000), wk =   0.0138889
        k(   91) = (   0.2500000   0.2500000   0.0000000), wk =   0.0138889
        k(   92) = (   0.2500000   0.3333333   0.0000000), wk =   0.0138889
        k(   93) = (   0.3333333   0.3333333   0.0000000), wk =   0.0138889
        k(   94) = (  -0.0833333   0.0833333   0.0000000), wk =   0.0138889
        k(   95) = (   0.0833333   0.0000000   0.0000000), wk =   0.0138889
        k(   96) = (  -0.1666667   0.1666667   0.0000000), wk =   0.0138889
        k(   97) = (   0.1666667   0.0000000   0.0000000), wk =   0.0138889
        k(   98) = (  -0.2500000   0.2500000   0.0000000), wk =   0.0138889
        k(   99) = (   0.2500000   0.0000000   0.0000000), wk =   0.0138889
        k(  100) = (  -0.3333333   0.3333333   0.0000000), wk =   0.0138889
        k(  101) = (   0.3333333   0.0000000   0.0000000), wk =   0.0138889
        k(  102) = (  -0.4166667   0.4166667   0.0000000), wk =   0.0138889
        k(  103) = (   0.4166667   0.0000000   0.0000000), wk =   0.0138889
        k(  104) = (   0.5000000  -0.5000000   0.0000000), wk =   0.0069444
        k(  105) = (  -0.5000000   0.0000000   0.0000000), wk =   0.0069444
        k(  106) = (  -0.0833333   0.1666667   0.0000000), wk =   0.0138889
        k(  107) = (   0.1666667  -0.0833333   0.0000000), wk =   0.0138889
        k(  108) = (  -0.0833333   0.2500000   0.0000000), wk =   0.0138889
        k(  109) = (  -0.1666667   0.2500000   0.0000000), wk =   0.0138889
        k(  110) = (   0.2500000  -0.0833333   0.0000000), wk =   0.0138889
        k(  111) = (  -0.1666667  -0.0833333   0.0000000), wk =   0.0138889
        k(  112) = (   0.2500000  -0.1666667   0.0000000), wk =   0.0138889
        k(  113) = (  -0.0833333   0.3333333   0.0000000), wk =   0.0138889
        k(  114) = (  -0.2500000   0.3333333   0.0000000), wk =   0.0138889
        k(  115) = (   0.3333333  -0.0833333   0.0000000), wk =   0.0138889
        k(  116) = (  -0.2500000  -0.0833333   0.0000000), wk =   0.0138889
        k(  117) = (   0.3333333  -0.2500000   0.0000000), wk =   0.0138889
        k(  118) = (  -0.0833333   0.4166667   0.0000000), wk =   0.0138889
        k(  119) = (  -0.3333333   0.4166667   0.0000000), wk =   0.0138889
        k(  120) = (   0.4166667  -0.0833333   0.0000000), wk =   0.0138889
        k(  121) = (  -0.3333333  -0.0833333   0.0000000), wk =   0.0138889
        k(  122) = (   0.4166667  -0.3333333   0.0000000), wk =   0.0138889
        k(  123) = (  -0.0833333   0.5000000   0.0000000), wk =   0.0138889
        k(  124) = (  -0.4166667   0.5000000   0.0000000), wk =   0.0138889
        k(  125) = (   0.5000000  -0.0833333   0.0000000), wk =   0.0138889
        k(  126) = (  -0.4166667  -0.0833333   0.0000000), wk =   0.0138889
        k(  127) = (   0.5000000  -0.4166667   0.0000000), wk =   0.0138889
        k(  128) = (  -0.1666667   0.3333333   0.0000000), wk =   0.0138889
        k(  129) = (   0.3333333  -0.1666667   0.0000000), wk =   0.0138889
        k(  130) = (  -0.1666667   0.4166667   0.0000000), wk =   0.0138889
        k(  131) = (  -0.2500000   0.4166667   0.0000000), wk =   0.0138889
        k(  132) = (   0.4166667  -0.1666667   0.0000000), wk =   0.0138889
        k(  133) = (  -0.2500000  -0.1666667   0.0000000), wk =   0.0138889
        k(  134) = (   0.4166667  -0.2500000   0.0000000), wk =   0.0138889
        k(  135) = (  -0.1666667   0.5000000   0.0000000), wk =   0.0138889
        k(  136) = (  -0.3333333   0.5000000   0.0000000), wk =   0.0138889
        k(  137) = (   0.5000000  -0.1666667   0.0000000), wk =   0.0138889
        k(  138) = (  -0.3333333  -0.1666667   0.0000000), wk =   0.0138889
        k(  139) = (   0.5000000  -0.3333333   0.0000000), wk =   0.0138889
        k(  140) = (  -0.4166667   0.5833333   0.0000000), wk =   0.0138889
        k(  141) = (   0.5833333  -0.1666667   0.0000000), wk =   0.0138889
        k(  142) = (  -0.2500000   0.5000000   0.0000000), wk =   0.0138889
        k(  143) = (   0.5000000  -0.2500000   0.0000000), wk =   0.0138889
        k(  144) = (  -0.2500000   0.5833333   0.0000000), wk =   0.0138889
        k(  145) = (  -0.3333333   0.5833333   0.0000000), wk =   0.0138889
        k(  146) = (   0.5833333  -0.2500000   0.0000000), wk =   0.0138889
        k(  147) = (  -0.3333333  -0.2500000   0.0000000), wk =   0.0138889
        k(  148) = (   0.5833333  -0.3333333   0.0000000), wk =   0.0138889

     Dense  grid:    96043 G-vectors     FFT dimensions: (  30,  30, 243)

     Smooth grid:    24369 G-vectors     FFT dimensions: (  20,  20, 160)

     Largest allocated arrays     est. size (Mb)     dimensions
        Kohn-Sham Wavefunctions         0.56 Mb     (    3054,   12)
        NL pseudopotentials             1.49 Mb     (    3054,   32)
        Each V/rho on FFT grid          6.67 Mb     (  218700,   2)
        Each G-vector array             0.73 Mb     (   96043)
        G-vector shells                 0.04 Mb     (    4763)
     Largest temporary arrays     est. size (Mb)     dimensions
        Auxiliary wavefunctions         2.24 Mb     (    3054,   48)
        Each subspace H/S matrix        0.04 Mb     (      48,   48)
        Each <psi_i|beta_j> matrix      0.01 Mb     (      32,   12)

     The potential is recalculated from file :
     ../tmp/g.dos1.save/charge-density.dat


     negative rho (up, down):  8.042E-07 8.043E-07
     Starting wfc are   16 randomized atomic wfcs

     Band Structure Calculation
     Davidson diagonalization with overlap

     Computing kpt #:     1
     total cpu time spent up to now is        2.7 secs

     Computing kpt #:     2
     total cpu time spent up to now is        3.5 secs

     Computing kpt #:     3
     total cpu time spent up to now is        4.3 secs

     Computing kpt #:     4
     total cpu time spent up to now is        5.2 secs

     Computing kpt #:     5
     total cpu time spent up to now is        6.0 secs

     Computing kpt #:     6
     total cpu time spent up to now is        6.6 secs

     Computing kpt #:     7
     total cpu time spent up to now is        7.1 secs

     Computing kpt #:     8
     total cpu time spent up to now is        7.9 secs

     Computing kpt #:     9
     total cpu time spent up to now is        8.8 secs

     Computing kpt #:    10
     total cpu time spent up to now is        9.6 secs

     Computing kpt #:    11
     total cpu time spent up to now is       10.4 secs

     Computing kpt #:    12
     total cpu time spent up to now is       11.0 secs

     Computing kpt #:    13
     total cpu time spent up to now is       11.7 secs

     Computing kpt #:    14
     total cpu time spent up to now is       12.5 secs

     Computing kpt #:    15
     total cpu time spent up to now is       13.4 secs

     Computing kpt #:    16
     total cpu time spent up to now is       14.0 secs

     Computing kpt #:    17
     total cpu time spent up to now is       14.7 secs

     Computing kpt #:    18
     total cpu time spent up to now is       15.7 secs

     Computing kpt #:    19
     total cpu time spent up to now is       16.4 secs

     Computing kpt #:    20
     total cpu time spent up to now is       17.1 secs

     Computing kpt #:    21
     total cpu time spent up to now is       17.9 secs

     Computing kpt #:    22
     total cpu time spent up to now is       18.7 secs

     Computing kpt #:    23
     total cpu time spent up to now is       19.5 secs

     Computing kpt #:    24
     total cpu time spent up to now is       20.4 secs

     Computing kpt #:    25
     total cpu time spent up to now is       21.3 secs

     Computing kpt #:    26
     total cpu time spent up to now is       22.1 secs

     Computing kpt #:    27
     total cpu time spent up to now is       23.0 secs

     Computing kpt #:    28
     total cpu time spent up to now is       23.6 secs

     Computing kpt #:    29
     total cpu time spent up to now is       24.3 secs

     Computing kpt #:    30
     total cpu time spent up to now is       24.8 secs

     Computing kpt #:    31
     total cpu time spent up to now is       25.3 secs

     Computing kpt #:    32
     total cpu time spent up to now is       26.1 secs

     Computing kpt #:    33
     total cpu time spent up to now is       26.9 secs

     Computing kpt #:    34
     total cpu time spent up to now is       27.8 secs

     Computing kpt #:    35
     total cpu time spent up to now is       28.7 secs

     Computing kpt #:    36
     total cpu time spent up to now is       29.7 secs

     Computing kpt #:    37
     total cpu time spent up to now is       30.7 secs

     Computing kpt #:    38
     total cpu time spent up to now is       31.6 secs

     Computing kpt #:    39
     total cpu time spent up to now is       32.4 secs

     Computing kpt #:    40
     total cpu time spent up to now is       33.2 secs

     Computing kpt #:    41
     total cpu time spent up to now is       33.9 secs

     Computing kpt #:    42
     total cpu time spent up to now is       34.7 secs

     Computing kpt #:    43
     total cpu time spent up to now is       35.5 secs

     Computing kpt #:    44
     total cpu time spent up to now is       36.3 secs

     Computing kpt #:    45
     total cpu time spent up to now is       37.2 secs

     Computing kpt #:    46
     total cpu time spent up to now is       38.0 secs

     Computing kpt #:    47
     total cpu time spent up to now is       38.7 secs

     Computing kpt #:    48
     total cpu time spent up to now is       39.6 secs

     Computing kpt #:    49
     total cpu time spent up to now is       40.1 secs

     Computing kpt #:    50
     total cpu time spent up to now is       40.7 secs

     Computing kpt #:    51
     total cpu time spent up to now is       41.2 secs

     Computing kpt #:    52
     total cpu time spent up to now is       41.8 secs

     Computing kpt #:    53
     total cpu time spent up to now is       42.3 secs

     Computing kpt #:    54
     total cpu time spent up to now is       43.1 secs

     Computing kpt #:    55
     total cpu time spent up to now is       43.9 secs

     Computing kpt #:    56
     total cpu time spent up to now is       44.6 secs

     Computing kpt #:    57
     total cpu time spent up to now is       45.4 secs

     Computing kpt #:    58
     total cpu time spent up to now is       46.1 secs

     Computing kpt #:    59
     total cpu time spent up to now is       46.9 secs

     Computing kpt #:    60
     total cpu time spent up to now is       47.6 secs

     Computing kpt #:    61
     total cpu time spent up to now is       48.5 secs

     Computing kpt #:    62
     total cpu time spent up to now is       49.8 secs

     Computing kpt #:    63
     total cpu time spent up to now is       50.7 secs

     Computing kpt #:    64
     total cpu time spent up to now is       51.7 secs

     Computing kpt #:    65
     total cpu time spent up to now is       52.5 secs

     Computing kpt #:    66
     total cpu time spent up to now is       53.2 secs

     Computing kpt #:    67
     total cpu time spent up to now is       53.8 secs

     Computing kpt #:    68
     total cpu time spent up to now is       54.5 secs

     Computing kpt #:    69
     total cpu time spent up to now is       55.2 secs

     Computing kpt #:    70
     total cpu time spent up to now is       56.2 secs

     Computing kpt #:    71
     total cpu time spent up to now is       57.2 secs

     Computing kpt #:    72
     total cpu time spent up to now is       58.0 secs

     Computing kpt #:    73
     total cpu time spent up to now is       59.0 secs

     Computing kpt #:    74
     total cpu time spent up to now is       59.9 secs

     Computing kpt #:    75
     total cpu time spent up to now is       60.7 secs

     Computing kpt #:    76
     total cpu time spent up to now is       61.4 secs

     Computing kpt #:    77
     total cpu time spent up to now is       62.2 secs

     Computing kpt #:    78
     total cpu time spent up to now is       63.1 secs

     Computing kpt #:    79
     total cpu time spent up to now is       63.9 secs

     Computing kpt #:    80
     total cpu time spent up to now is       64.5 secs

     Computing kpt #:    81
     total cpu time spent up to now is       65.1 secs

     Computing kpt #:    82
     total cpu time spent up to now is       65.8 secs

     Computing kpt #:    83
     total cpu time spent up to now is       66.8 secs

     Computing kpt #:    84
     total cpu time spent up to now is       67.6 secs

     Computing kpt #:    85
     total cpu time spent up to now is       68.4 secs

     Computing kpt #:    86
     total cpu time spent up to now is       69.0 secs

     Computing kpt #:    87
     total cpu time spent up to now is       69.7 secs

     Computing kpt #:    88
     total cpu time spent up to now is       70.5 secs

     Computing kpt #:    89
     total cpu time spent up to now is       71.4 secs

     Computing kpt #:    90
     total cpu time spent up to now is       72.0 secs

     Computing kpt #:    91
     total cpu time spent up to now is       72.7 secs

     Computing kpt #:    92
     total cpu time spent up to now is       73.6 secs

     Computing kpt #:    93
     total cpu time spent up to now is       74.3 secs

     Computing kpt #:    94
     total cpu time spent up to now is       75.1 secs

     Computing kpt #:    95
     total cpu time spent up to now is       75.8 secs

     Computing kpt #:    96
     total cpu time spent up to now is       76.6 secs

     Computing kpt #:    97
     total cpu time spent up to now is       77.4 secs

     Computing kpt #:    98
     total cpu time spent up to now is       78.4 secs

     Computing kpt #:    99
     total cpu time spent up to now is       79.3 secs

     Computing kpt #:   100
     total cpu time spent up to now is       80.1 secs

     Computing kpt #:   101
     total cpu time spent up to now is       80.9 secs

     Computing kpt #:   102
     total cpu time spent up to now is       81.5 secs

     Computing kpt #:   103
     total cpu time spent up to now is       82.2 secs

     Computing kpt #:   104
     total cpu time spent up to now is       82.7 secs

     Computing kpt #:   105
     total cpu time spent up to now is       83.2 secs

     Computing kpt #:   106
     total cpu time spent up to now is       84.0 secs

     Computing kpt #:   107
     total cpu time spent up to now is       84.7 secs

     Computing kpt #:   108
     total cpu time spent up to now is       85.6 secs

     Computing kpt #:   109
     total cpu time spent up to now is       86.6 secs

     Computing kpt #:   110
     total cpu time spent up to now is       87.5 secs

     Computing kpt #:   111
     total cpu time spent up to now is       88.5 secs

     Computing kpt #:   112
     total cpu time spent up to now is       89.4 secs

     Computing kpt #:   113
     total cpu time spent up to now is       90.2 secs

     Computing kpt #:   114
     total cpu time spent up to now is       90.9 secs

     Computing kpt #:   115
     total cpu time spent up to now is       91.7 secs

     Computing kpt #:   116
     total cpu time spent up to now is       92.4 secs

     Computing kpt #:   117
     total cpu time spent up to now is       93.2 secs

     Computing kpt #:   118
     total cpu time spent up to now is       94.0 secs

     Computing kpt #:   119
     total cpu time spent up to now is       94.8 secs

     Computing kpt #:   120
     total cpu time spent up to now is       95.7 secs

     Computing kpt #:   121
     total cpu time spent up to now is       96.6 secs

     Computing kpt #:   122
     total cpu time spent up to now is       97.4 secs

     Computing kpt #:   123
     total cpu time spent up to now is       98.0 secs

     Computing kpt #:   124
     total cpu time spent up to now is       98.5 secs

     Computing kpt #:   125
     total cpu time spent up to now is       99.1 secs

     Computing kpt #:   126
     total cpu time spent up to now is       99.6 secs

     Computing kpt #:   127
     total cpu time spent up to now is      100.2 secs

     Computing kpt #:   128
     total cpu time spent up to now is      101.0 secs

     Computing kpt #:   129
     total cpu time spent up to now is      101.7 secs

     Computing kpt #:   130
     total cpu time spent up to now is      102.4 secs

     Computing kpt #:   131
     total cpu time spent up to now is      103.2 secs

     Computing kpt #:   132
     total cpu time spent up to now is      103.9 secs

     Computing kpt #:   133
     total cpu time spent up to now is      104.6 secs

     Computing kpt #:   134
     total cpu time spent up to now is      105.4 secs

     Computing kpt #:   135
     total cpu time spent up to now is      106.2 secs

     Computing kpt #:   136
     total cpu time spent up to now is      107.3 secs

     Computing kpt #:   137
     total cpu time spent up to now is      108.1 secs

     Computing kpt #:   138
     total cpu time spent up to now is      109.1 secs

     Computing kpt #:   139
     total cpu time spent up to now is      110.0 secs

     Computing kpt #:   140
     total cpu time spent up to now is      110.6 secs

     Computing kpt #:   141
     total cpu time spent up to now is      111.3 secs

     Computing kpt #:   142
     total cpu time spent up to now is      112.0 secs

     Computing kpt #:   143
     total cpu time spent up to now is      112.7 secs

     Computing kpt #:   144
     total cpu time spent up to now is      113.7 secs

     Computing kpt #:   145
     total cpu time spent up to now is      114.7 secs

     Computing kpt #:   146
     total cpu time spent up to now is      115.5 secs

     Computing kpt #:   147
     total cpu time spent up to now is      116.5 secs

     Computing kpt #:   148
     total cpu time spent up to now is      117.4 secs

     ethr =  6.25E-13,  avg # of iterations = 37.9

     total cpu time spent up to now is      117.4 secs

     End of band structure calculation

 ------ SPIN UP ------------


          k = 0.0000 0.0000 0.0000 (  3053 PWs)   bands (ev):

   -20.0419 -19.8989  -8.5532  -7.6120  -3.5714  -3.5652  -3.5630  -3.5607
     2.9198   3.3035   4.0232   5.2026

     occupation numbers 
     1.0000   1.0000   1.0000   1.0000   1.0000   1.0000   1.0000   1.0000
     0.0000   0.0000   0.0000   0.0000

          k = 0.0000 0.0962 0.0000 (  3052 PWs)   bands (ev):

   -19.8777 -19.7361  -8.3554  -7.4198  -4.2203  -4.2035  -3.9018  -3.8994
     3.1407   3.5268   4.2489   5.4266

     occupation numbers 
     1.0000   1.0000   1.0000   1.0000   1.0000   1.0000   1.0000   1.0000
     0.0000   0.0000   0.0000   0.0000

          k = 0.0000 0.1925 0.0000 (  3050 PWs)   bands (ev):

   -19.3867 -19.2493  -7.7668  -6.8485  -5.8545  -5.8234  -4.6903  -4.6876
     3.8028   4.1954   4.9259   6.0973

     occupation numbers 
     1.0000   1.0000   1.0000   1.0000   1.0000   1.0000   1.0000   1.0000
     0.0000   0.0000   0.0000   0.0000

          k = 0.0000 0.2887 0.0000 (  3048 PWs)   bands (ev):

   -18.5750 -18.4444  -7.9498  -7.9023  -6.8054  -5.9185  -5.5659  -5.5629
     4.9019   5.2989   6.0518   6.5108

     occupation numbers 
     1.0000   1.0000   1.0000   1.0000   1.0000   1.0000   1.0000   1.0000
     0.0000   0.0000   0.0000   0.0000

          k = 0.0000 0.3849 0.0000 (  3042 PWs)   bands (ev):

   -17.4549 -17.3332 -10.1510 -10.0875  -6.2960  -6.2928  -5.5195  -4.6821
     4.1320   4.6589   6.4210   6.8613

     occupation numbers 
     1.0000   1.0000   1.0000   1.0000   1.0000   1.0000   1.0000   1.0000
     0.0000   0.0000   0.0000   0.0000

          k = 0.0000 0.4811 0.0000 (  3054 PWs)   bands (ev):

   -16.0581 -15.9468 -12.2501 -12.1719  -6.7669  -6.7636  -4.0673  -3.3064
     1.9274   2.6162   6.9462   6.9614

     occupation numbers 
     1.0000   1.0000   1.0000   1.0000   1.0000   1.0000   1.0000   1.0000
     0.0000   0.0000   0.0000   0.0000

          k = 0.0000-0.5774 0.0000 (  3052 PWs)   bands (ev):

   -14.7968 -14.6902 -13.7533 -13.6688  -6.9286  -6.9253  -3.1930  -2.5029
     0.7871   1.5750   6.8633   6.8876

     occupation numbers 
     1.0000   1.0000   1.0000   1.0000   1.0000   1.0000   1.0000   1.0000
     0.0000   0.0000   0.0000   0.0000

          k = 0.0833 0.1443 0.0000 (  3051 PWs)   bands (ev):

   -19.5501 -19.4113  -7.9619  -7.0381  -5.2483  -5.2290  -4.5789  -4.5700
     3.5824   3.9729   4.7004   5.8743

     occupation numbers 
     1.0000   1.0000   1.0000   1.0000   1.0000   1.0000   1.0000   1.0000
     0.0000   0.0000   0.0000   0.0000

          k = 0.0833 0.2406 0.0000 (  3045 PWs)   bands (ev):

   -18.8988 -18.7654  -7.1861  -6.9559  -6.9215  -6.2862  -5.5743  -5.5591
     4.4645   4.8621   5.6032   6.7668

     occupation numbers 
     1.0000   1.0000   1.0000   1.0000   1.0000   1.0000   1.0000   1.0000
     0.0000   0.0000   0.0000   0.0000

          k = 0.0833 0.3368 0.0000 (  3033 PWs)   bands (ev):

   -17.9327 -17.8073  -9.0280  -8.9749  -6.4589  -6.4385  -6.0557  -5.1964
     5.2056   5.5909   5.7836   6.2187

     occupation numbers 
     1.0000   1.0000   1.0000   1.0000   1.0000   1.0000   1.0000   1.0000
     0.0000   0.0000   0.0000   0.0000

          k = 0.0833 0.4330 0.0000 (  3041 PWs)   bands (ev):

   -16.6710 -16.5555 -11.1500 -11.0804  -7.0921  -7.0691  -4.6534  -3.8557
     2.9284   3.4925   7.4742   7.7308

     occupation numbers 
     1.0000   1.0000   1.0000   1.0000   1.0000   1.0000   1.0000   1.0000
     0.0000   0.0000   0.0000   0.0000

          k = 0.0833 0.5292 0.0000 (  3043 PWs)   bands (ev):

   -15.1914 -15.0855 -13.0903 -13.0078  -7.4195  -7.3956  -3.3094  -2.5978
     1.0988   1.8067   7.5793   7.6341

     occupation numbers 
     1.0000   1.0000   1.0000   1.0000   1.0000   1.0000   1.0000   1.0000
     0.0000   0.0000   0.0000   0.0000

          k = 0.1667 0.2887 0.0000 (  3039 PWs)   bands (ev):

   -18.0929 -17.9664  -8.2794  -8.2456  -6.9323  -6.9098  -6.2360  -5.3718
     5.5639   5.7010   5.9664   5.9964

     occupation numbers 
     1.0000   1.0000   1.0000   1.0000   1.0000   1.0000   1.0000   1.0000
     0.0000   0.0000   0.0000   0.0000

          k = 0.1667 0.3849 0.0000 (  3045 PWs)   bands (ev):

   -16.9837 -16.8662 -10.0085  -9.9556  -7.9889  -7.9549  -4.9645  -4.1517
     3.7203   4.0993   7.0900   7.4966

     occupation numbers 
     1.0000   1.0000   1.0000   1.0000   1.0000   1.0000   1.0000   1.0000
     0.0000   0.0000   0.0000   0.0000

          k = 0.1667 0.4811 0.0000 (  3041 PWs)   bands (ev):

   -15.6069 -15.4997 -11.9208 -11.8487  -8.5658  -8.5247  -3.5100  -2.7696
     1.7522   2.2640   8.9933   9.3303

     occupation numbers 
     1.0000   1.0000   1.0000   1.0000   1.0000   1.0000   1.0000   1.0000
     0.0000   0.0000   0.0000   0.0000

          k = 0.1667 0.5774 0.0000 (  3008 PWs)   bands (ev):

   -14.3745 -14.2724 -13.3535 -13.2739  -8.7507  -8.7078  -2.5920  -1.9129
     0.6458   1.2469   9.3121   9.4665

     occupation numbers 
     1.0000   1.0000   1.0000   1.0000   1.0000   1.0000   1.0000   1.0000
     0.0000   0.0000   0.0000   0.0000

          k = 0.2500 0.4330 0.0000 (  3033 PWs)   bands (ev):

   -15.7541 -15.6469 -11.0372 -10.9898  -9.4648  -9.4299  -3.5927  -2.8557
     2.1143   2.4907   8.7984   9.1489

     occupation numbers 
     1.0000   1.0000   1.0000   1.0000   1.0000   1.0000   1.0000   1.0000
     0.0000   0.0000   0.0000   0.0000

          k = 0.2500 0.5292 0.0000 (  3013 PWs)   bands (ev):

   -14.3313 -14.2345 -12.4626 -12.3956 -10.1759 -10.1276  -2.1818  -1.5105
     0.5737   1.0030   9.9055  10.6933

     occupation numbers 
     1.0000   1.0000   1.0000   1.0000   1.0000   1.0000   1.0000   1.0000
     0.0000   0.0000   0.0000   0.0000

          k = 0.3333 0.5774 0.0000 (  3027 PWs)   bands (ev):

   -13.1145 -13.1024 -13.0392 -13.0248 -11.0650 -11.0210  -0.8171  -0.7306
    -0.2779  -0.1740   9.4648  10.7466

     occupation numbers 
     1.0000   1.0000   1.0000   1.0000   1.0000   1.0000   1.0000   1.0000
     0.0000   0.0000   0.0000   0.0000

          k =-0.0833 0.0481 0.0000 (  3052 PWs)   bands (ev):

   -19.8777 -19.7361  -8.3553  -7.4199  -4.2185  -4.2027  -3.9068  -3.8971
     3.1407   3.5268   4.2488   5.4265

     occupation numbers 
     1.0000   1.0000   1.0000   1.0000   1.0000   1.0000   1.0000   1.0000
     0.0000   0.0000   0.0000   0.0000

          k = 0.0833 0.0481 0.0000 (  3052 PWs)   bands (ev):

   -19.8777 -19.7361  -8.3553  -7.4199  -4.2185  -4.2027  -3.9068  -3.8971
     3.1407   3.5268   4.2488   5.4265

     occupation numbers 
     1.0000   1.0000   1.0000   1.0000   1.0000   1.0000   1.0000   1.0000
     0.0000   0.0000   0.0000   0.0000

          k =-0.1667 0.0962 0.0000 (  3050 PWs)   bands (ev):

   -19.3867 -19.2494  -7.7661  -6.8493  -5.8542  -5.8219  -4.6964  -4.6837
     3.8028   4.1951   4.9259   6.0970

     occupation numbers 
     1.0000   1.0000   1.0000   1.0000   1.0000   1.0000   1.0000   1.0000
     0.0000   0.0000   0.0000   0.0000

          k = 0.1667 0.0962 0.0000 (  3050 PWs)   bands (ev):

   -19.3867 -19.2494  -7.7661  -6.8493  -5.8542  -5.8219  -4.6964  -4.6837
     3.8028   4.1951   4.9259   6.0970

     occupation numbers 
     1.0000   1.0000   1.0000   1.0000   1.0000   1.0000   1.0000   1.0000
     0.0000   0.0000   0.0000   0.0000

          k =-0.2500 0.1443 0.0000 (  3048 PWs)   bands (ev):

   -18.5749 -18.4445  -7.9497  -7.9009  -6.8031  -5.9214  -5.5727  -5.5579
     4.9022   5.2947   6.0513   6.5110

     occupation numbers 
     1.0000   1.0000   1.0000   1.0000   1.0000   1.0000   1.0000   1.0000
     0.0000   0.0000   0.0000   0.0000

          k = 0.2500 0.1443 0.0000 (  3048 PWs)   bands (ev):

   -18.5749 -18.4445  -7.9497  -7.9009  -6.8031  -5.9214  -5.5727  -5.5579
     4.9022   5.2947   6.0513   6.5110

     occupation numbers 
     1.0000   1.0000   1.0000   1.0000   1.0000   1.0000   1.0000   1.0000
     0.0000   0.0000   0.0000   0.0000

          k =-0.3333 0.1925 0.0000 (  3042 PWs)   bands (ev):

   -17.4545 -17.3336 -10.1510 -10.0862  -6.3032  -6.2871  -5.5117  -4.6923
     4.1379   4.6584   6.4179   6.8682

     occupation numbers 
     1.0000   1.0000   1.0000   1.0000   1.0000   1.0000   1.0000   1.0000
     0.0000   0.0000   0.0000   0.0000

          k = 0.3333 0.1925 0.0000 (  3042 PWs)   bands (ev):

   -17.4545 -17.3336 -10.1510 -10.0862  -6.3032  -6.2871  -5.5117  -4.6923
     4.1379   4.6584   6.4179   6.8682

     occupation numbers 
     1.0000   1.0000   1.0000   1.0000   1.0000   1.0000   1.0000   1.0000
     0.0000   0.0000   0.0000   0.0000

          k =-0.4167 0.2406 0.0000 (  3054 PWs)   bands (ev):

   -16.0566 -15.9483 -12.2497 -12.1712  -6.7743  -6.7574  -4.0356  -3.3495
     1.9801   2.5782   6.8918   7.0171

     occupation numbers 
     1.0000   1.0000   1.0000   1.0000   1.0000   1.0000   1.0000   1.0000
     0.0000   0.0000   0.0000   0.0000

          k = 0.4167 0.2406 0.0000 (  3054 PWs)   bands (ev):

   -16.0566 -15.9483 -12.2497 -12.1712  -6.7743  -6.7574  -4.0356  -3.3495
     1.9801   2.5782   6.8918   7.0171

     occupation numbers 
     1.0000   1.0000   1.0000   1.0000   1.0000   1.0000   1.0000   1.0000
     0.0000   0.0000   0.0000   0.0000

          k = 0.5000-0.2887 0.0000 (  3052 PWs)   bands (ev):

   -14.7804 -14.7102 -13.7375 -13.6802  -6.9361  -6.9191  -3.0929  -2.6419
     0.9232   1.4810   6.8138   6.9379

     occupation numbers 
     1.0000   1.0000   1.0000   1.0000   1.0000   1.0000   1.0000   1.0000
     0.0000   0.0000   0.0000   0.0000

          k =-0.5000-0.2887 0.0000 (  3052 PWs)   bands (ev):

   -14.7804 -14.7102 -13.7375 -13.6802  -6.9361  -6.9191  -3.0929  -2.6419
     0.9232   1.4810   6.8138   6.9379

     occupation numbers 
     1.0000   1.0000   1.0000   1.0000   1.0000   1.0000   1.0000   1.0000
     0.0000   0.0000   0.0000   0.0000

          k =-0.0833 0.1443 0.0000 (  3051 PWs)   bands (ev):

   -19.5501 -19.4113  -7.9619  -7.0381  -5.2483  -5.2290  -4.5789  -4.5700
     3.5824   3.9729   4.7004   5.8743

     occupation numbers 
     1.0000   1.0000   1.0000   1.0000   1.0000   1.0000   1.0000   1.0000
     0.0000   0.0000   0.0000   0.0000

          k = 0.1667-0.0000 0.0000 (  3051 PWs)   bands (ev):

   -19.5500 -19.4113  -7.9615  -7.0386  -5.2516  -5.2231  -4.5834  -4.5683
     3.5824   3.9727   4.7004   5.8742

     occupation numbers 
     1.0000   1.0000   1.0000   1.0000   1.0000   1.0000   1.0000   1.0000
     0.0000   0.0000   0.0000   0.0000

          k =-0.0833 0.2406 0.0000 (  3045 PWs)   bands (ev):

   -18.8988 -18.7654  -7.1861  -6.9559  -6.9215  -6.2862  -5.5743  -5.5591
     4.4645   4.8621   5.6032   6.7668

     occupation numbers 
     1.0000   1.0000   1.0000   1.0000   1.0000   1.0000   1.0000   1.0000
     0.0000   0.0000   0.0000   0.0000

          k =-0.1667 0.1925 0.0000 (  3045 PWs)   bands (ev):

   -18.8987 -18.7655  -7.1852  -6.9556  -6.9208  -6.2871  -5.5766  -5.5581
     4.4646   4.8616   5.6032   6.7649

     occupation numbers 
     1.0000   1.0000   1.0000   1.0000   1.0000   1.0000   1.0000   1.0000
     0.0000   0.0000   0.0000   0.0000

          k = 0.2500 0.0481 0.0000 (  3045 PWs)   bands (ev):

   -18.8986 -18.7655  -7.1843  -6.9585  -6.9167  -6.2881  -5.5787  -5.5573
     4.4646   4.8614   5.6032   6.7650

     occupation numbers 
     1.0000   1.0000   1.0000   1.0000   1.0000   1.0000   1.0000   1.0000
     0.0000   0.0000   0.0000   0.0000

          k =-0.1667-0.1925 0.0000 (  3045 PWs)   bands (ev):

   -18.8987 -18.7655  -7.1852  -6.9556  -6.9208  -6.2871  -5.5766  -5.5581
     4.4646   4.8616   5.6032   6.7649

     occupation numbers 
     1.0000   1.0000   1.0000   1.0000   1.0000   1.0000   1.0000   1.0000
     0.0000   0.0000   0.0000   0.0000

          k = 0.2500-0.0481 0.0000 (  3045 PWs)   bands (ev):

   -18.8986 -18.7655  -7.1843  -6.9585  -6.9167  -6.2881  -5.5787  -5.5573
     4.4646   4.8614   5.6032   6.7650

     occupation numbers 
     1.0000   1.0000   1.0000   1.0000   1.0000   1.0000   1.0000   1.0000
     0.0000   0.0000   0.0000   0.0000

          k =-0.0833 0.3368 0.0000 (  3033 PWs)   bands (ev):

   -17.9327 -17.8073  -9.0280  -8.9749  -6.4589  -6.4385  -6.0557  -5.1964
     5.2056   5.5909   5.7836   6.2187

     occupation numbers 
     1.0000   1.0000   1.0000   1.0000   1.0000   1.0000   1.0000   1.0000
     0.0000   0.0000   0.0000   0.0000

          k =-0.2500 0.2406 0.0000 (  3033 PWs)   bands (ev):

   -17.9325 -17.8075  -9.0276  -8.9741  -6.4615  -6.4373  -6.0524  -5.2007
     5.2010   5.5979   5.7816   6.2234

     occupation numbers 
     1.0000   1.0000   1.0000   1.0000   1.0000   1.0000   1.0000   1.0000
     0.0000   0.0000   0.0000   0.0000

          k = 0.3333 0.0962 0.0000 (  3033 PWs)   bands (ev):

   -17.9324 -17.8075  -9.0292  -8.9721  -6.4622  -6.4371  -6.0512  -5.2021
     5.1683   5.6366   5.7835   6.2189

     occupation numbers 
     1.0000   1.0000   1.0000   1.0000   1.0000   1.0000   1.0000   1.0000
     0.0000   0.0000   0.0000   0.0000

          k =-0.2500-0.2406 0.0000 (  3033 PWs)   bands (ev):

   -17.9325 -17.8075  -9.0276  -8.9741  -6.4615  -6.4373  -6.0524  -5.2007
     5.2010   5.5979   5.7816   6.2234

     occupation numbers 
     1.0000   1.0000   1.0000   1.0000   1.0000   1.0000   1.0000   1.0000
     0.0000   0.0000   0.0000   0.0000

          k = 0.3333-0.0962 0.0000 (  3033 PWs)   bands (ev):

   -17.9324 -17.8075  -9.0292  -8.9721  -6.4622  -6.4371  -6.0512  -5.2021
     5.1683   5.6366   5.7835   6.2189

     occupation numbers 
     1.0000   1.0000   1.0000   1.0000   1.0000   1.0000   1.0000   1.0000
     0.0000   0.0000   0.0000   0.0000

          k =-0.0833 0.4330 0.0000 (  3041 PWs)   bands (ev):

   -16.6710 -16.5555 -11.1500 -11.0804  -7.0921  -7.0691  -4.6534  -3.8557
     2.9284   3.4925   7.4742   7.7308

     occupation numbers 
     1.0000   1.0000   1.0000   1.0000   1.0000   1.0000   1.0000   1.0000
     0.0000   0.0000   0.0000   0.0000

          k =-0.3333 0.2887 0.0000 (  3041 PWs)   bands (ev):

   -16.6703 -16.5561 -11.1497 -11.0797  -7.0946  -7.0679  -4.6394  -3.8743
     2.9523   3.4766   7.4589   7.7670

     occupation numbers 
     1.0000   1.0000   1.0000   1.0000   1.0000   1.0000   1.0000   1.0000
     0.0000   0.0000   0.0000   0.0000

          k = 0.4167 0.1443 0.0000 (  3041 PWs)   bands (ev):

   -16.6702 -16.5562 -11.1506 -11.0786  -7.0949  -7.0678  -4.6380  -3.8758
     2.9283   3.5039   7.4635   7.7374

     occupation numbers 
     1.0000   1.0000   1.0000   1.0000   1.0000   1.0000   1.0000   1.0000
     0.0000   0.0000   0.0000   0.0000

          k =-0.3333-0.2887 0.0000 (  3041 PWs)   bands (ev):

   -16.6703 -16.5561 -11.1497 -11.0797  -7.0946  -7.0679  -4.6394  -3.8743
     2.9523   3.4766   7.4589   7.7670

     occupation numbers 
     1.0000   1.0000   1.0000   1.0000   1.0000   1.0000   1.0000   1.0000
     0.0000   0.0000   0.0000   0.0000

          k = 0.4167-0.1443 0.0000 (  3041 PWs)   bands (ev):

   -16.6702 -16.5562 -11.1506 -11.0786  -7.0949  -7.0678  -4.6380  -3.8758
     2.9283   3.5039   7.4635   7.7374

     occupation numbers 
     1.0000   1.0000   1.0000   1.0000   1.0000   1.0000   1.0000   1.0000
     0.0000   0.0000   0.0000   0.0000

          k =-0.0833 0.5292 0.0000 (  3043 PWs)   bands (ev):

   -15.1914 -15.0855 -13.0903 -13.0078  -7.4195  -7.3956  -3.3094  -2.5978
     1.0988   1.8067   7.5793   7.6341

     occupation numbers 
     1.0000   1.0000   1.0000   1.0000   1.0000   1.0000   1.0000   1.0000
     0.0000   0.0000   0.0000   0.0000

          k =-0.4167 0.3368 0.0000 (  3043 PWs)   bands (ev):

   -15.1874 -15.0901 -13.0877 -13.0088  -7.4221  -7.3944  -3.2442  -2.6890
     1.1914   1.7444   7.5389   7.6764

     occupation numbers 
     1.0000   1.0000   1.0000   1.0000   1.0000   1.0000   1.0000   1.0000
     0.0000   0.0000   0.0000   0.0000

          k = 0.5000 0.1925 0.0000 (  3043 PWs)   bands (ev):

   -15.1872 -15.0903 -13.0883 -13.0082  -7.4222  -7.3943  -3.2436  -2.6891
     1.1776   1.7587   7.5385   7.6753

     occupation numbers 
     1.0000   1.0000   1.0000   1.0000   1.0000   1.0000   1.0000   1.0000
     0.0000   0.0000   0.0000   0.0000

          k =-0.4167-0.3368 0.0000 (  3043 PWs)   bands (ev):

   -15.1874 -15.0901 -13.0877 -13.0088  -7.4221  -7.3944  -3.2442  -2.6890
     1.1914   1.7444   7.5389   7.6764

     occupation numbers 
     1.0000   1.0000   1.0000   1.0000   1.0000   1.0000   1.0000   1.0000
     0.0000   0.0000   0.0000   0.0000

          k = 0.5000-0.1925 0.0000 (  3043 PWs)   bands (ev):

   -15.1872 -15.0903 -13.0883 -13.0082  -7.4222  -7.3943  -3.2436  -2.6891
     1.1776   1.7587   7.5385   7.6753

     occupation numbers 
     1.0000   1.0000   1.0000   1.0000   1.0000   1.0000   1.0000   1.0000
     0.0000   0.0000   0.0000   0.0000

          k =-0.1667 0.2887 0.0000 (  3039 PWs)   bands (ev):

   -18.0929 -17.9664  -8.2794  -8.2456  -6.9323  -6.9098  -6.2360  -5.3718
     5.5639   5.7010   5.9664   5.9964

     occupation numbers 
     1.0000   1.0000   1.0000   1.0000   1.0000   1.0000   1.0000   1.0000
     0.0000   0.0000   0.0000   0.0000

          k = 0.3333-0.0000 0.0000 (  3039 PWs)   bands (ev):

   -18.0928 -17.9666  -8.2869  -8.2357  -6.9393  -6.9053  -6.2336  -5.3749
     5.5645   5.6316   5.9664   6.0746

     occupation numbers 
     1.0000   1.0000   1.0000   1.0000   1.0000   1.0000   1.0000   1.0000
     0.0000   0.0000   0.0000   0.0000

          k =-0.1667 0.3849 0.0000 (  3045 PWs)   bands (ev):

   -16.9837 -16.8662 -10.0085  -9.9556  -7.9889  -7.9549  -4.9645  -4.1517
     3.7203   4.0993   7.0900   7.4966

     occupation numbers 
     1.0000   1.0000   1.0000   1.0000   1.0000   1.0000   1.0000   1.0000
     0.0000   0.0000   0.0000   0.0000

          k =-0.2500 0.3368 0.0000 (  3045 PWs)   bands (ev):

   -16.9836 -16.8664 -10.0081  -9.9551  -7.9897  -7.9549  -4.9606  -4.1569
     3.7215   4.1018   7.0894   7.5003

     occupation numbers 
     1.0000   1.0000   1.0000   1.0000   1.0000   1.0000   1.0000   1.0000
     0.0000   0.0000   0.0000   0.0000

          k = 0.4167 0.0481 0.0000 (  3045 PWs)   bands (ev):

   -16.9833 -16.8666 -10.0129  -9.9492  -7.9935  -7.9523  -4.9569  -4.1612
     3.6537   4.1796   7.0902   7.4934

     occupation numbers 
     1.0000   1.0000   1.0000   1.0000   1.0000   1.0000   1.0000   1.0000
     0.0000   0.0000   0.0000   0.0000

          k =-0.2500-0.3368 0.0000 (  3045 PWs)   bands (ev):

   -16.9836 -16.8664 -10.0081  -9.9551  -7.9897  -7.9549  -4.9606  -4.1569
     3.7215   4.1018   7.0894   7.5003

     occupation numbers 
     1.0000   1.0000   1.0000   1.0000   1.0000   1.0000   1.0000   1.0000
     0.0000   0.0000   0.0000   0.0000

          k = 0.4167-0.0481 0.0000 (  3045 PWs)   bands (ev):

   -16.9833 -16.8666 -10.0129  -9.9492  -7.9935  -7.9523  -4.9569  -4.1612
     3.6537   4.1796   7.0902   7.4934

     occupation numbers 
     1.0000   1.0000   1.0000   1.0000   1.0000   1.0000   1.0000   1.0000
     0.0000   0.0000   0.0000   0.0000

          k =-0.1667 0.4811 0.0000 (  3041 PWs)   bands (ev):

   -15.6069 -15.4997 -11.9208 -11.8487  -8.5658  -8.5247  -3.5100  -2.7696
     1.7522   2.2640   8.9933   9.3303

     occupation numbers 
     1.0000   1.0000   1.0000   1.0000   1.0000   1.0000   1.0000   1.0000
     0.0000   0.0000   0.0000   0.0000

          k =-0.3333 0.3849 0.0000 (  3041 PWs)   bands (ev):

   -15.6058 -15.5009 -11.9201 -11.8484  -8.5668  -8.5248  -3.4849  -2.8042
     1.7781   2.2534   8.9839   9.4019

     occupation numbers 
     1.0000   1.0000   1.0000   1.0000   1.0000   1.0000   1.0000   1.0000
     0.0000   0.0000   0.0000   0.0000

          k = 0.5000 0.0962 0.0000 (  3041 PWs)   bands (ev):

   -15.6054 -15.5013 -11.9224 -11.8457  -8.5680  -8.5240  -3.4812  -2.8075
     1.7259   2.3104   8.9898   9.3089

     occupation numbers 
     1.0000   1.0000   1.0000   1.0000   1.0000   1.0000   1.0000   1.0000
     0.0000   0.0000   0.0000   0.0000

          k =-0.3333-0.3849 0.0000 (  3041 PWs)   bands (ev):

   -15.6058 -15.5009 -11.9201 -11.8484  -8.5668  -8.5248  -3.4849  -2.8042
     1.7781   2.2534   8.9839   9.4019

     occupation numbers 
     1.0000   1.0000   1.0000   1.0000   1.0000   1.0000   1.0000   1.0000
     0.0000   0.0000   0.0000   0.0000

          k = 0.5000-0.0962 0.0000 (  3041 PWs)   bands (ev):

   -15.6054 -15.5013 -11.9224 -11.8457  -8.5680  -8.5240  -3.4812  -2.8075
     1.7259   2.3104   8.9898   9.3089

     occupation numbers 
     1.0000   1.0000   1.0000   1.0000   1.0000   1.0000   1.0000   1.0000
     0.0000   0.0000   0.0000   0.0000

          k =-0.4167 0.4330 0.0000 (  3008 PWs)   bands (ev):

   -14.3587 -14.2915 -13.3396 -13.2835  -8.7520  -8.7077  -2.4943  -2.0514
     0.7248   1.2172   9.2865   9.4969

     occupation numbers 
     1.0000   1.0000   1.0000   1.0000   1.0000   1.0000   1.0000   1.0000
     0.0000   0.0000   0.0000   0.0000

          k = 0.5833 0.1443 0.0000 (  3008 PWs)   bands (ev):

   -14.3587 -14.2915 -13.3396 -13.2835  -8.7520  -8.7077  -2.4943  -2.0514
     0.7248   1.2172   9.2865   9.4969

     occupation numbers 
     1.0000   1.0000   1.0000   1.0000   1.0000   1.0000   1.0000   1.0000
     0.0000   0.0000   0.0000   0.0000

          k =-0.2500 0.4330 0.0000 (  3033 PWs)   bands (ev):

   -15.7541 -15.6469 -11.0372 -10.9898  -9.4648  -9.4299  -3.5927  -2.8557
     2.1143   2.4907   8.7984   9.1489

     occupation numbers 
     1.0000   1.0000   1.0000   1.0000   1.0000   1.0000   1.0000   1.0000
     0.0000   0.0000   0.0000   0.0000

          k = 0.5000-0.0000 0.0000 (  3033 PWs)   bands (ev):

   -15.7534 -15.6476 -11.0482 -10.9765  -9.4747  -9.4222  -3.5813  -2.8690
     2.0236   2.5951   8.7995   9.1114

     occupation numbers 
     1.0000   1.0000   1.0000   1.0000   1.0000   1.0000   1.0000   1.0000
     0.0000   0.0000   0.0000   0.0000

          k =-0.2500 0.5292 0.0000 (  3013 PWs)   bands (ev):

   -14.3313 -14.2345 -12.4626 -12.3956 -10.1759 -10.1276  -2.1818  -1.5105
     0.5737   1.0030   9.9055  10.6933

     occupation numbers 
     1.0000   1.0000   1.0000   1.0000   1.0000   1.0000   1.0000   1.0000
     0.0000   0.0000   0.0000   0.0000

          k =-0.3333 0.4811 0.0000 (  3013 PWs)   bands (ev):

   -14.3286 -14.2378 -12.4609 -12.3958 -10.1773 -10.1271  -2.1389  -1.5751
     0.5930   1.0106   9.8895  10.7163

     occupation numbers 
     1.0000   1.0000   1.0000   1.0000   1.0000   1.0000   1.0000   1.0000
     0.0000   0.0000   0.0000   0.0000

          k = 0.5833 0.0481 0.0000 (  3013 PWs)   bands (ev):

   -14.3277 -14.2387 -12.4677 -12.3883 -10.1804 -10.1247  -2.1305  -1.5784
     0.5106   1.0929   9.8498  10.7152

     occupation numbers 
     1.0000   1.0000   1.0000   1.0000   1.0000   1.0000   1.0000   1.0000
     0.0000   0.0000   0.0000   0.0000

          k =-0.3333-0.4811 0.0000 (  3013 PWs)   bands (ev):

   -14.3286 -14.2378 -12.4609 -12.3958 -10.1773 -10.1271  -2.1389  -1.5751
     0.5930   1.0106   9.8895  10.7163

     occupation numbers 
     1.0000   1.0000   1.0000   1.0000   1.0000   1.0000   1.0000   1.0000
     0.0000   0.0000   0.0000   0.0000

          k = 0.5833-0.0481 0.0000 (  3013 PWs)   bands (ev):

   -14.3277 -14.2387 -12.4677 -12.3883 -10.1804 -10.1247  -2.1305  -1.5784
     0.5106   1.0929   9.8498  10.7152

     occupation numbers 
     1.0000   1.0000   1.0000   1.0000   1.0000   1.0000   1.0000   1.0000
     0.0000   0.0000   0.0000   0.0000

 ------ SPIN DOWN ----------


          k = 0.0000 0.0000 0.0000 (  3053 PWs)   bands (ev):

   -20.0419 -19.8989  -8.5532  -7.6120  -3.5714  -3.5652  -3.5630  -3.5607
     2.9198   3.3035   4.0232   5.2026

     occupation numbers 
     1.0000   1.0000   1.0000   1.0000   1.0000   1.0000   1.0000   1.0000
     0.0000   0.0000   0.0000   0.0000

          k = 0.0000 0.0962 0.0000 (  3052 PWs)   bands (ev):

   -19.8777 -19.7361  -8.3554  -7.4198  -4.2203  -4.2035  -3.9018  -3.8994
     3.1407   3.5268   4.2489   5.4266

     occupation numbers 
     1.0000   1.0000   1.0000   1.0000   1.0000   1.0000   1.0000   1.0000
     0.0000   0.0000   0.0000   0.0000

          k = 0.0000 0.1925 0.0000 (  3050 PWs)   bands (ev):

   -19.3867 -19.2493  -7.7668  -6.8485  -5.8545  -5.8234  -4.6903  -4.6876
     3.8028   4.1954   4.9259   6.0973

     occupation numbers 
     1.0000   1.0000   1.0000   1.0000   1.0000   1.0000   1.0000   1.0000
     0.0000   0.0000   0.0000   0.0000

          k = 0.0000 0.2887 0.0000 (  3048 PWs)   bands (ev):

   -18.5750 -18.4444  -7.9498  -7.9023  -6.8054  -5.9185  -5.5659  -5.5629
     4.9019   5.2989   6.0518   6.5108

     occupation numbers 
     1.0000   1.0000   1.0000   1.0000   1.0000   1.0000   1.0000   1.0000
     0.0000   0.0000   0.0000   0.0000

          k = 0.0000 0.3849 0.0000 (  3042 PWs)   bands (ev):

   -17.4549 -17.3332 -10.1510 -10.0875  -6.2960  -6.2928  -5.5195  -4.6821
     4.1320   4.6589   6.4210   6.8613

     occupation numbers 
     1.0000   1.0000   1.0000   1.0000   1.0000   1.0000   1.0000   1.0000
     0.0000   0.0000   0.0000   0.0000

          k = 0.0000 0.4811 0.0000 (  3054 PWs)   bands (ev):

   -16.0581 -15.9468 -12.2501 -12.1719  -6.7669  -6.7636  -4.0673  -3.3064
     1.9274   2.6162   6.9462   6.9614

     occupation numbers 
     1.0000   1.0000   1.0000   1.0000   1.0000   1.0000   1.0000   1.0000
     0.0000   0.0000   0.0000   0.0000

          k = 0.0000-0.5774 0.0000 (  3052 PWs)   bands (ev):

   -14.7968 -14.6902 -13.7533 -13.6688  -6.9286  -6.9253  -3.1930  -2.5029
     0.7871   1.5750   6.8633   6.8876

     occupation numbers 
     1.0000   1.0000   1.0000   1.0000   1.0000   1.0000   1.0000   1.0000
     0.0000   0.0000   0.0000   0.0000

          k = 0.0833 0.1443 0.0000 (  3051 PWs)   bands (ev):

   -19.5501 -19.4113  -7.9619  -7.0381  -5.2483  -5.2290  -4.5789  -4.5700
     3.5824   3.9729   4.7004   5.8743

     occupation numbers 
     1.0000   1.0000   1.0000   1.0000   1.0000   1.0000   1.0000   1.0000
     0.0000   0.0000   0.0000   0.0000

          k = 0.0833 0.2406 0.0000 (  3045 PWs)   bands (ev):

   -18.8988 -18.7654  -7.1861  -6.9559  -6.9215  -6.2862  -5.5743  -5.5591
     4.4645   4.8621   5.6032   6.7668

     occupation numbers 
     1.0000   1.0000   1.0000   1.0000   1.0000   1.0000   1.0000   1.0000
     0.0000   0.0000   0.0000   0.0000

          k = 0.0833 0.3368 0.0000 (  3033 PWs)   bands (ev):

   -17.9327 -17.8073  -9.0280  -8.9749  -6.4589  -6.4385  -6.0557  -5.1964
     5.2056   5.5909   5.7836   6.2187

     occupation numbers 
     1.0000   1.0000   1.0000   1.0000   1.0000   1.0000   1.0000   1.0000
     0.0000   0.0000   0.0000   0.0000

          k = 0.0833 0.4330 0.0000 (  3041 PWs)   bands (ev):

   -16.6710 -16.5555 -11.1500 -11.0804  -7.0921  -7.0691  -4.6534  -3.8557
     2.9284   3.4925   7.4742   7.7308

     occupation numbers 
     1.0000   1.0000   1.0000   1.0000   1.0000   1.0000   1.0000   1.0000
     0.0000   0.0000   0.0000   0.0000

          k = 0.0833 0.5292 0.0000 (  3043 PWs)   bands (ev):

   -15.1914 -15.0855 -13.0903 -13.0078  -7.4195  -7.3956  -3.3094  -2.5978
     1.0988   1.8067   7.5793   7.6341

     occupation numbers 
     1.0000   1.0000   1.0000   1.0000   1.0000   1.0000   1.0000   1.0000
     0.0000   0.0000   0.0000   0.0000

          k = 0.1667 0.2887 0.0000 (  3039 PWs)   bands (ev):

   -18.0929 -17.9664  -8.2794  -8.2456  -6.9323  -6.9098  -6.2360  -5.3718
     5.5639   5.7010   5.9664   5.9964

     occupation numbers 
     1.0000   1.0000   1.0000   1.0000   1.0000   1.0000   1.0000   1.0000
     0.0000   0.0000   0.0000   0.0000

          k = 0.1667 0.3849 0.0000 (  3045 PWs)   bands (ev):

   -16.9837 -16.8662 -10.0085  -9.9556  -7.9889  -7.9549  -4.9645  -4.1517
     3.7203   4.0993   7.0900   7.4966

     occupation numbers 
     1.0000   1.0000   1.0000   1.0000   1.0000   1.0000   1.0000   1.0000
     0.0000   0.0000   0.0000   0.0000

          k = 0.1667 0.4811 0.0000 (  3041 PWs)   bands (ev):

   -15.6069 -15.4997 -11.9208 -11.8487  -8.5658  -8.5247  -3.5100  -2.7696
     1.7522   2.2640   8.9933   9.3303

     occupation numbers 
     1.0000   1.0000   1.0000   1.0000   1.0000   1.0000   1.0000   1.0000
     0.0000   0.0000   0.0000   0.0000

          k = 0.1667 0.5774 0.0000 (  3008 PWs)   bands (ev):

   -14.3745 -14.2724 -13.3535 -13.2739  -8.7507  -8.7078  -2.5920  -1.9129
     0.6458   1.2469   9.3121   9.4665

     occupation numbers 
     1.0000   1.0000   1.0000   1.0000   1.0000   1.0000   1.0000   1.0000
     0.0000   0.0000   0.0000   0.0000

          k = 0.2500 0.4330 0.0000 (  3033 PWs)   bands (ev):

   -15.7541 -15.6469 -11.0372 -10.9898  -9.4648  -9.4299  -3.5927  -2.8557
     2.1143   2.4907   8.7984   9.1489

     occupation numbers 
     1.0000   1.0000   1.0000   1.0000   1.0000   1.0000   1.0000   1.0000
     0.0000   0.0000   0.0000   0.0000

          k = 0.2500 0.5292 0.0000 (  3013 PWs)   bands (ev):

   -14.3313 -14.2345 -12.4626 -12.3956 -10.1759 -10.1276  -2.1818  -1.5105
     0.5737   1.0030   9.9055  10.6933

     occupation numbers 
     1.0000   1.0000   1.0000   1.0000   1.0000   1.0000   1.0000   1.0000
     0.0000   0.0000   0.0000   0.0000

          k = 0.3333 0.5774 0.0000 (  3027 PWs)   bands (ev):

   -13.1145 -13.1024 -13.0392 -13.0248 -11.0650 -11.0210  -0.8171  -0.7306
    -0.2779  -0.1740   9.4648  10.7466

     occupation numbers 
     1.0000   1.0000   1.0000   1.0000   1.0000   1.0000   1.0000   1.0000
     0.0000   0.0000   0.0000   0.0000

          k =-0.0833 0.0481 0.0000 (  3052 PWs)   bands (ev):

   -19.8777 -19.7361  -8.3553  -7.4199  -4.2185  -4.2027  -3.9068  -3.8971
     3.1407   3.5268   4.2488   5.4265

     occupation numbers 
     1.0000   1.0000   1.0000   1.0000   1.0000   1.0000   1.0000   1.0000
     0.0000   0.0000   0.0000   0.0000

          k = 0.0833 0.0481 0.0000 (  3052 PWs)   bands (ev):

   -19.8777 -19.7361  -8.3553  -7.4199  -4.2185  -4.2027  -3.9068  -3.8971
     3.1407   3.5268   4.2488   5.4265

     occupation numbers 
     1.0000   1.0000   1.0000   1.0000   1.0000   1.0000   1.0000   1.0000
     0.0000   0.0000   0.0000   0.0000

          k =-0.1667 0.0962 0.0000 (  3050 PWs)   bands (ev):

   -19.3867 -19.2494  -7.7661  -6.8493  -5.8542  -5.8219  -4.6964  -4.6837
     3.8028   4.1951   4.9259   6.0970

     occupation numbers 
     1.0000   1.0000   1.0000   1.0000   1.0000   1.0000   1.0000   1.0000
     0.0000   0.0000   0.0000   0.0000

          k = 0.1667 0.0962 0.0000 (  3050 PWs)   bands (ev):

   -19.3867 -19.2494  -7.7661  -6.8493  -5.8542  -5.8219  -4.6964  -4.6837
     3.8028   4.1951   4.9259   6.0970

     occupation numbers 
     1.0000   1.0000   1.0000   1.0000   1.0000   1.0000   1.0000   1.0000
     0.0000   0.0000   0.0000   0.0000

          k =-0.2500 0.1443 0.0000 (  3048 PWs)   bands (ev):

   -18.5749 -18.4445  -7.9497  -7.9009  -6.8031  -5.9214  -5.5727  -5.5579
     4.9022   5.2947   6.0513   6.5110

     occupation numbers 
     1.0000   1.0000   1.0000   1.0000   1.0000   1.0000   1.0000   1.0000
     0.0000   0.0000   0.0000   0.0000

          k = 0.2500 0.1443 0.0000 (  3048 PWs)   bands (ev):

   -18.5749 -18.4445  -7.9497  -7.9009  -6.8031  -5.9214  -5.5727  -5.5579
     4.9022   5.2947   6.0513   6.5110

     occupation numbers 
     1.0000   1.0000   1.0000   1.0000   1.0000   1.0000   1.0000   1.0000
     0.0000   0.0000   0.0000   0.0000

          k =-0.3333 0.1925 0.0000 (  3042 PWs)   bands (ev):

   -17.4545 -17.3336 -10.1510 -10.0862  -6.3032  -6.2871  -5.5117  -4.6923
     4.1379   4.6584   6.4179   6.8682

     occupation numbers 
     1.0000   1.0000   1.0000   1.0000   1.0000   1.0000   1.0000   1.0000
     0.0000   0.0000   0.0000   0.0000

          k = 0.3333 0.1925 0.0000 (  3042 PWs)   bands (ev):

   -17.4545 -17.3336 -10.1510 -10.0862  -6.3032  -6.2871  -5.5117  -4.6923
     4.1379   4.6584   6.4179   6.8682

     occupation numbers 
     1.0000   1.0000   1.0000   1.0000   1.0000   1.0000   1.0000   1.0000
     0.0000   0.0000   0.0000   0.0000

          k =-0.4167 0.2406 0.0000 (  3054 PWs)   bands (ev):

   -16.0566 -15.9483 -12.2497 -12.1712  -6.7743  -6.7575  -4.0356  -3.3495
     1.9801   2.5782   6.8918   7.0171

     occupation numbers 
     1.0000   1.0000   1.0000   1.0000   1.0000   1.0000   1.0000   1.0000
     0.0000   0.0000   0.0000   0.0000

          k = 0.4167 0.2406 0.0000 (  3054 PWs)   bands (ev):

   -16.0566 -15.9483 -12.2497 -12.1712  -6.7743  -6.7575  -4.0356  -3.3495
     1.9801   2.5782   6.8918   7.0171

     occupation numbers 
     1.0000   1.0000   1.0000   1.0000   1.0000   1.0000   1.0000   1.0000
     0.0000   0.0000   0.0000   0.0000

          k = 0.5000-0.2887 0.0000 (  3052 PWs)   bands (ev):

   -14.7804 -14.7102 -13.7375 -13.6802  -6.9361  -6.9191  -3.0929  -2.6419
     0.9232   1.4810   6.8138   6.9379

     occupation numbers 
     1.0000   1.0000   1.0000   1.0000   1.0000   1.0000   1.0000   1.0000
     0.0000   0.0000   0.0000   0.0000

          k =-0.5000-0.2887 0.0000 (  3052 PWs)   bands (ev):

   -14.7804 -14.7102 -13.7375 -13.6802  -6.9361  -6.9191  -3.0929  -2.6419
     0.9232   1.4810   6.8138   6.9379

     occupation numbers 
     1.0000   1.0000   1.0000   1.0000   1.0000   1.0000   1.0000   1.0000
     0.0000   0.0000   0.0000   0.0000

          k =-0.0833 0.1443 0.0000 (  3051 PWs)   bands (ev):

   -19.5501 -19.4113  -7.9619  -7.0381  -5.2483  -5.2290  -4.5789  -4.5700
     3.5824   3.9729   4.7004   5.8743

     occupation numbers 
     1.0000   1.0000   1.0000   1.0000   1.0000   1.0000   1.0000   1.0000
     0.0000   0.0000   0.0000   0.0000

          k = 0.1667-0.0000 0.0000 (  3051 PWs)   bands (ev):

   -19.5500 -19.4113  -7.9615  -7.0386  -5.2516  -5.2231  -4.5834  -4.5683
     3.5824   3.9727   4.7004   5.8742

     occupation numbers 
     1.0000   1.0000   1.0000   1.0000   1.0000   1.0000   1.0000   1.0000
     0.0000   0.0000   0.0000   0.0000

          k =-0.0833 0.2406 0.0000 (  3045 PWs)   bands (ev):

   -18.8988 -18.7654  -7.1861  -6.9559  -6.9215  -6.2862  -5.5743  -5.5591
     4.4645   4.8621   5.6032   6.7668

     occupation numbers 
     1.0000   1.0000   1.0000   1.0000   1.0000   1.0000   1.0000   1.0000
     0.0000   0.0000   0.0000   0.0000

          k =-0.1667 0.1925 0.0000 (  3045 PWs)   bands (ev):

   -18.8987 -18.7655  -7.1852  -6.9556  -6.9208  -6.2871  -5.5766  -5.5581
     4.4646   4.8616   5.6032   6.7649

     occupation numbers 
     1.0000   1.0000   1.0000   1.0000   1.0000   1.0000   1.0000   1.0000
     0.0000   0.0000   0.0000   0.0000

          k = 0.2500 0.0481 0.0000 (  3045 PWs)   bands (ev):

   -18.8986 -18.7655  -7.1843  -6.9585  -6.9167  -6.2881  -5.5787  -5.5573
     4.4646   4.8614   5.6032   6.7650

     occupation numbers 
     1.0000   1.0000   1.0000   1.0000   1.0000   1.0000   1.0000   1.0000
     0.0000   0.0000   0.0000   0.0000

          k =-0.1667-0.1925 0.0000 (  3045 PWs)   bands (ev):

   -18.8987 -18.7655  -7.1852  -6.9556  -6.9208  -6.2871  -5.5766  -5.5581
     4.4646   4.8616   5.6032   6.7649

     occupation numbers 
     1.0000   1.0000   1.0000   1.0000   1.0000   1.0000   1.0000   1.0000
     0.0000   0.0000   0.0000   0.0000

          k = 0.2500-0.0481 0.0000 (  3045 PWs)   bands (ev):

   -18.8986 -18.7655  -7.1843  -6.9585  -6.9167  -6.2881  -5.5787  -5.5573
     4.4646   4.8614   5.6032   6.7650

     occupation numbers 
     1.0000   1.0000   1.0000   1.0000   1.0000   1.0000   1.0000   1.0000
     0.0000   0.0000   0.0000   0.0000

          k =-0.0833 0.3368 0.0000 (  3033 PWs)   bands (ev):

   -17.9327 -17.8073  -9.0280  -8.9749  -6.4589  -6.4385  -6.0557  -5.1964
     5.2056   5.5909   5.7836   6.2187

     occupation numbers 
     1.0000   1.0000   1.0000   1.0000   1.0000   1.0000   1.0000   1.0000
     0.0000   0.0000   0.0000   0.0000

          k =-0.2500 0.2406 0.0000 (  3033 PWs)   bands (ev):

   -17.9325 -17.8075  -9.0276  -8.9741  -6.4615  -6.4373  -6.0524  -5.2007
     5.2010   5.5979   5.7816   6.2234

     occupation numbers 
     1.0000   1.0000   1.0000   1.0000   1.0000   1.0000   1.0000   1.0000
     0.0000   0.0000   0.0000   0.0000

          k = 0.3333 0.0962 0.0000 (  3033 PWs)   bands (ev):

   -17.9324 -17.8075  -9.0292  -8.9721  -6.4622  -6.4371  -6.0512  -5.2021
     5.1683   5.6366   5.7835   6.2189

     occupation numbers 
     1.0000   1.0000   1.0000   1.0000   1.0000   1.0000   1.0000   1.0000
     0.0000   0.0000   0.0000   0.0000

          k =-0.2500-0.2406 0.0000 (  3033 PWs)   bands (ev):

   -17.9325 -17.8075  -9.0276  -8.9741  -6.4615  -6.4373  -6.0524  -5.2007
     5.2010   5.5979   5.7816   6.2234

     occupation numbers 
     1.0000   1.0000   1.0000   1.0000   1.0000   1.0000   1.0000   1.0000
     0.0000   0.0000   0.0000   0.0000

          k = 0.3333-0.0962 0.0000 (  3033 PWs)   bands (ev):

   -17.9324 -17.8075  -9.0292  -8.9721  -6.4622  -6.4371  -6.0512  -5.2021
     5.1683   5.6366   5.7835   6.2189

     occupation numbers 
     1.0000   1.0000   1.0000   1.0000   1.0000   1.0000   1.0000   1.0000
     0.0000   0.0000   0.0000   0.0000

          k =-0.0833 0.4330 0.0000 (  3041 PWs)   bands (ev):

   -16.6710 -16.5555 -11.1500 -11.0804  -7.0921  -7.0691  -4.6534  -3.8557
     2.9284   3.4925   7.4742   7.7308

     occupation numbers 
     1.0000   1.0000   1.0000   1.0000   1.0000   1.0000   1.0000   1.0000
     0.0000   0.0000   0.0000   0.0000

          k =-0.3333 0.2887 0.0000 (  3041 PWs)   bands (ev):

   -16.6703 -16.5561 -11.1497 -11.0797  -7.0946  -7.0679  -4.6394  -3.8743
     2.9523   3.4766   7.4589   7.7670

     occupation numbers 
     1.0000   1.0000   1.0000   1.0000   1.0000   1.0000   1.0000   1.0000
     0.0000   0.0000   0.0000   0.0000

          k = 0.4167 0.1443 0.0000 (  3041 PWs)   bands (ev):

   -16.6702 -16.5562 -11.1506 -11.0786  -7.0949  -7.0678  -4.6380  -3.8758
     2.9283   3.5039   7.4635   7.7374

     occupation numbers 
     1.0000   1.0000   1.0000   1.0000   1.0000   1.0000   1.0000   1.0000
     0.0000   0.0000   0.0000   0.0000

          k =-0.3333-0.2887 0.0000 (  3041 PWs)   bands (ev):

   -16.6703 -16.5561 -11.1497 -11.0797  -7.0946  -7.0679  -4.6394  -3.8743
     2.9523   3.4766   7.4589   7.7670

     occupation numbers 
     1.0000   1.0000   1.0000   1.0000   1.0000   1.0000   1.0000   1.0000
     0.0000   0.0000   0.0000   0.0000

          k = 0.4167-0.1443 0.0000 (  3041 PWs)   bands (ev):

   -16.6702 -16.5562 -11.1506 -11.0786  -7.0949  -7.0678  -4.6380  -3.8758
     2.9283   3.5039   7.4635   7.7374

     occupation numbers 
     1.0000   1.0000   1.0000   1.0000   1.0000   1.0000   1.0000   1.0000
     0.0000   0.0000   0.0000   0.0000

          k =-0.0833 0.5292 0.0000 (  3043 PWs)   bands (ev):

   -15.1914 -15.0855 -13.0903 -13.0078  -7.4195  -7.3956  -3.3094  -2.5978
     1.0988   1.8067   7.5793   7.6341

     occupation numbers 
     1.0000   1.0000   1.0000   1.0000   1.0000   1.0000   1.0000   1.0000
     0.0000   0.0000   0.0000   0.0000

          k =-0.4167 0.3368 0.0000 (  3043 PWs)   bands (ev):

   -15.1874 -15.0901 -13.0877 -13.0088  -7.4221  -7.3944  -3.2442  -2.6890
     1.1914   1.7444   7.5389   7.6764

     occupation numbers 
     1.0000   1.0000   1.0000   1.0000   1.0000   1.0000   1.0000   1.0000
     0.0000   0.0000   0.0000   0.0000

          k = 0.5000 0.1925 0.0000 (  3043 PWs)   bands (ev):

   -15.1872 -15.0903 -13.0883 -13.0082  -7.4222  -7.3943  -3.2436  -2.6891
     1.1776   1.7587   7.5385   7.6753

     occupation numbers 
     1.0000   1.0000   1.0000   1.0000   1.0000   1.0000   1.0000   1.0000
     0.0000   0.0000   0.0000   0.0000

          k =-0.4167-0.3368 0.0000 (  3043 PWs)   bands (ev):

   -15.1874 -15.0901 -13.0877 -13.0088  -7.4221  -7.3944  -3.2442  -2.6890
     1.1914   1.7444   7.5389   7.6764

     occupation numbers 
     1.0000   1.0000   1.0000   1.0000   1.0000   1.0000   1.0000   1.0000
     0.0000   0.0000   0.0000   0.0000

          k = 0.5000-0.1925 0.0000 (  3043 PWs)   bands (ev):

   -15.1872 -15.0903 -13.0883 -13.0082  -7.4222  -7.3943  -3.2436  -2.6891
     1.1776   1.7587   7.5385   7.6753

     occupation numbers 
     1.0000   1.0000   1.0000   1.0000   1.0000   1.0000   1.0000   1.0000
     0.0000   0.0000   0.0000   0.0000

          k =-0.1667 0.2887 0.0000 (  3039 PWs)   bands (ev):

   -18.0929 -17.9664  -8.2794  -8.2456  -6.9323  -6.9098  -6.2360  -5.3718
     5.5639   5.7010   5.9664   5.9964

     occupation numbers 
     1.0000   1.0000   1.0000   1.0000   1.0000   1.0000   1.0000   1.0000
     0.0000   0.0000   0.0000   0.0000

          k = 0.3333-0.0000 0.0000 (  3039 PWs)   bands (ev):

   -18.0928 -17.9666  -8.2869  -8.2357  -6.9393  -6.9053  -6.2336  -5.3749
     5.5645   5.6316   5.9664   6.0746

     occupation numbers 
     1.0000   1.0000   1.0000   1.0000   1.0000   1.0000   1.0000   1.0000
     0.0000   0.0000   0.0000   0.0000

          k =-0.1667 0.3849 0.0000 (  3045 PWs)   bands (ev):

   -16.9837 -16.8662 -10.0085  -9.9556  -7.9889  -7.9549  -4.9645  -4.1517
     3.7203   4.0993   7.0900   7.4966

     occupation numbers 
     1.0000   1.0000   1.0000   1.0000   1.0000   1.0000   1.0000   1.0000
     0.0000   0.0000   0.0000   0.0000

          k =-0.2500 0.3368 0.0000 (  3045 PWs)   bands (ev):

   -16.9836 -16.8664 -10.0081  -9.9551  -7.9897  -7.9549  -4.9606  -4.1569
     3.7215   4.1018   7.0894   7.5003

     occupation numbers 
     1.0000   1.0000   1.0000   1.0000   1.0000   1.0000   1.0000   1.0000
     0.0000   0.0000   0.0000   0.0000

          k = 0.4167 0.0481 0.0000 (  3045 PWs)   bands (ev):

   -16.9833 -16.8666 -10.0129  -9.9492  -7.9935  -7.9523  -4.9569  -4.1612
     3.6537   4.1796   7.0901   7.4934

     occupation numbers 
     1.0000   1.0000   1.0000   1.0000   1.0000   1.0000   1.0000   1.0000
     0.0000   0.0000   0.0000   0.0000

          k =-0.2500-0.3368 0.0000 (  3045 PWs)   bands (ev):

   -16.9836 -16.8664 -10.0081  -9.9551  -7.9897  -7.9549  -4.9606  -4.1569
     3.7215   4.1018   7.0894   7.5003

     occupation numbers 
     1.0000   1.0000   1.0000   1.0000   1.0000   1.0000   1.0000   1.0000
     0.0000   0.0000   0.0000   0.0000

          k = 0.4167-0.0481 0.0000 (  3045 PWs)   bands (ev):

   -16.9833 -16.8666 -10.0129  -9.9492  -7.9935  -7.9523  -4.9569  -4.1612
     3.6537   4.1796   7.0901   7.4934

     occupation numbers 
     1.0000   1.0000   1.0000   1.0000   1.0000   1.0000   1.0000   1.0000
     0.0000   0.0000   0.0000   0.0000

          k =-0.1667 0.4811 0.0000 (  3041 PWs)   bands (ev):

   -15.6069 -15.4997 -11.9208 -11.8487  -8.5658  -8.5247  -3.5100  -2.7696
     1.7522   2.2640   8.9933   9.3303

     occupation numbers 
     1.0000   1.0000   1.0000   1.0000   1.0000   1.0000   1.0000   1.0000
     0.0000   0.0000   0.0000   0.0000

          k =-0.3333 0.3849 0.0000 (  3041 PWs)   bands (ev):

   -15.6058 -15.5009 -11.9201 -11.8484  -8.5668  -8.5248  -3.4849  -2.8042
     1.7781   2.2534   8.9839   9.4019

     occupation numbers 
     1.0000   1.0000   1.0000   1.0000   1.0000   1.0000   1.0000   1.0000
     0.0000   0.0000   0.0000   0.0000

          k = 0.5000 0.0962 0.0000 (  3041 PWs)   bands (ev):

   -15.6054 -15.5013 -11.9224 -11.8457  -8.5680  -8.5240  -3.4812  -2.8075
     1.7259   2.3104   8.9898   9.3089

     occupation numbers 
     1.0000   1.0000   1.0000   1.0000   1.0000   1.0000   1.0000   1.0000
     0.0000   0.0000   0.0000   0.0000

          k =-0.3333-0.3849 0.0000 (  3041 PWs)   bands (ev):

   -15.6058 -15.5009 -11.9201 -11.8484  -8.5668  -8.5248  -3.4849  -2.8042
     1.7781   2.2534   8.9839   9.4019

     occupation numbers 
     1.0000   1.0000   1.0000   1.0000   1.0000   1.0000   1.0000   1.0000
     0.0000   0.0000   0.0000   0.0000

          k = 0.5000-0.0962 0.0000 (  3041 PWs)   bands (ev):

   -15.6054 -15.5013 -11.9224 -11.8457  -8.5680  -8.5240  -3.4812  -2.8075
     1.7259   2.3104   8.9898   9.3089

     occupation numbers 
     1.0000   1.0000   1.0000   1.0000   1.0000   1.0000   1.0000   1.0000
     0.0000   0.0000   0.0000   0.0000

          k =-0.4167 0.4330 0.0000 (  3008 PWs)   bands (ev):

   -14.3587 -14.2915 -13.3396 -13.2835  -8.7520  -8.7077  -2.4943  -2.0514
     0.7248   1.2172   9.2865   9.4969

     occupation numbers 
     1.0000   1.0000   1.0000   1.0000   1.0000   1.0000   1.0000   1.0000
     0.0000   0.0000   0.0000   0.0000

          k = 0.5833 0.1443 0.0000 (  3008 PWs)   bands (ev):

   -14.3587 -14.2915 -13.3396 -13.2835  -8.7520  -8.7077  -2.4943  -2.0514
     0.7248   1.2172   9.2865   9.4969

     occupation numbers 
     1.0000   1.0000   1.0000   1.0000   1.0000   1.0000   1.0000   1.0000
     0.0000   0.0000   0.0000   0.0000

          k =-0.2500 0.4330 0.0000 (  3033 PWs)   bands (ev):

   -15.7541 -15.6469 -11.0372 -10.9898  -9.4648  -9.4299  -3.5927  -2.8557
     2.1143   2.4907   8.7984   9.1489

     occupation numbers 
     1.0000   1.0000   1.0000   1.0000   1.0000   1.0000   1.0000   1.0000
     0.0000   0.0000   0.0000   0.0000

          k = 0.5000-0.0000 0.0000 (  3033 PWs)   bands (ev):

   -15.7534 -15.6476 -11.0482 -10.9765  -9.4747  -9.4222  -3.5813  -2.8690
     2.0236   2.5951   8.7995   9.1114

     occupation numbers 
     1.0000   1.0000   1.0000   1.0000   1.0000   1.0000   1.0000   1.0000
     0.0000   0.0000   0.0000   0.0000

          k =-0.2500 0.5292 0.0000 (  3013 PWs)   bands (ev):

   -14.3313 -14.2345 -12.4626 -12.3956 -10.1759 -10.1276  -2.1818  -1.5105
     0.5737   1.0030   9.9055  10.6933

     occupation numbers 
     1.0000   1.0000   1.0000   1.0000   1.0000   1.0000   1.0000   1.0000
     0.0000   0.0000   0.0000   0.0000

          k =-0.3333 0.4811 0.0000 (  3013 PWs)   bands (ev):

   -14.3286 -14.2378 -12.4610 -12.3958 -10.1773 -10.1271  -2.1389  -1.5751
     0.5930   1.0106   9.8895  10.7163

     occupation numbers 
     1.0000   1.0000   1.0000   1.0000   1.0000   1.0000   1.0000   1.0000
     0.0000   0.0000   0.0000   0.0000

          k = 0.5833 0.0481 0.0000 (  3013 PWs)   bands (ev):

   -14.3277 -14.2387 -12.4677 -12.3883 -10.1804 -10.1247  -2.1305  -1.5784
     0.5106   1.0929   9.8498  10.7152

     occupation numbers 
     1.0000   1.0000   1.0000   1.0000   1.0000   1.0000   1.0000   1.0000
     0.0000   0.0000   0.0000   0.0000

          k =-0.3333-0.4811 0.0000 (  3013 PWs)   bands (ev):

   -14.3286 -14.2378 -12.4610 -12.3958 -10.1773 -10.1271  -2.1389  -1.5751
     0.5930   1.0106   9.8895  10.7163

     occupation numbers 
     1.0000   1.0000   1.0000   1.0000   1.0000   1.0000   1.0000   1.0000
     0.0000   0.0000   0.0000   0.0000

          k = 0.5833-0.0481 0.0000 (  3013 PWs)   bands (ev):

   -14.3277 -14.2387 -12.4677 -12.3883 -10.1804 -10.1247  -2.1305  -1.5784
     0.5106   1.0929   9.8498  10.7152

     occupation numbers 
     1.0000   1.0000   1.0000   1.0000   1.0000   1.0000   1.0000   1.0000
     0.0000   0.0000   0.0000   0.0000

     the Fermi energy is    -0.3173 ev

     Writing output data file g.dos1.save

     init_run     :      1.76s CPU      1.79s WALL (       1 calls)
     electrons    :    115.19s CPU    115.46s WALL (       1 calls)

     Called by init_run:
     wfcinit      :      0.00s CPU      0.00s WALL (       1 calls)
     potinit      :      0.68s CPU      0.69s WALL (       1 calls)

     Called by electrons:
     c_bands      :    115.18s CPU    115.46s WALL (       1 calls)
     v_of_rho     :      0.60s CPU      0.61s WALL (       1 calls)
     v_h          :      0.01s CPU      0.01s WALL (       1 calls)
     v_xc         :      0.59s CPU      0.60s WALL (       1 calls)
     newd         :      0.32s CPU      0.32s WALL (       1 calls)

     Called by c_bands:
     init_us_2    :      0.16s CPU      0.17s WALL (     148 calls)
     cegterg      :    107.96s CPU    108.23s WALL (     342 calls)

     Called by sum_band:

     Called by *egterg:
     h_psi        :     59.86s CPU     60.10s WALL (    6104 calls)
     s_psi        :      8.87s CPU      8.88s WALL (    6104 calls)
     g_psi        :      0.60s CPU      0.60s WALL (    5614 calls)
     cdiaghg      :      3.99s CPU      4.00s WALL (    5762 calls)
     cegterg:over :     16.07s CPU     16.08s WALL (    5614 calls)
     cegterg:upda :     11.67s CPU     11.68s WALL (    5614 calls)
     cegterg:last :      9.52s CPU      9.51s WALL (     933 calls)

     Called by h_psi:
     h_psi:vloc   :     40.93s CPU     41.12s WALL (    6104 calls)
     h_psi:vnl    :     18.63s CPU     18.67s WALL (    6104 calls)
     add_vuspsi   :      8.91s CPU      8.92s WALL (    6104 calls)

     General routines
     calbec       :      9.68s CPU      9.72s WALL (    6104 calls)
     fft          :      0.21s CPU      0.21s WALL (      22 calls)
     ffts         :      0.00s CPU      0.00s WALL (       2 calls)
     fftw         :     29.99s CPU     30.14s WALL (   69710 calls)
     interpolate  :      0.02s CPU      0.02s WALL (       2 calls)

     Parallel routines
     fft_scatter  :      4.80s CPU      4.82s WALL (   69734 calls)

     PWSCF        :  1m57.61s CPU     1m58.08s WALL


   This run was terminated on:  15: 8: 9  21Apr2020            

=------------------------------------------------------------------------------=
   JOB DONE.
=------------------------------------------------------------------------------=
