
     Program PWSCF v.5.1 starts on  1May2020 at  6:38:43 

     This program is part of the open-source Quantum ESPRESSO suite
     for quantum simulation of materials; please cite
         "P. Giannozzi et al., J. Phys.:Condens. Matter 21 395502 (2009);
          URL http://www.quantum-espresso.org", 
     in publications or presentations arising from this work. More details at
     http://www.quantum-espresso.org/quote

     Parallel version (MPI), running on     1 processors
     Waiting for input...
     Reading input from standard input

     Current dimensions of program PWSCF are:
     Max number of different atomic species (ntypx) = 10
     Max number of k-points (npk) =  40000
     Max angular momentum in pseudopotentials (lmaxx) =  3

     IMPORTANT: XC functional enforced from input :
     Exchange-correlation      = PBE ( 1  4  3  4 0)
     Any further DFT definition will be discarded
     Please, verify this is what you really want

               file C.pbe-rrkjus.UPF: wavefunction(s)  2S 2P renormalized

     Subspace diagonalization in iterative solution of the eigenvalue problem:
     a serial algorithm will be used


     G-vector sticks info
     --------------------
     sticks:   dense  smooth     PW     G-vecs:    dense   smooth      PW
     Sum         595     241     85                96043    24369    4587

     Generating pointlists ...
     new r_m :   0.2381 (alat units)  1.1104 (a.u.) for type    1

     Title: 
     graphene                                                                   


     bravais-lattice index     =           12
     lattice parameter (alat)  =       4.6627  a.u.
     unit-cell volume          =     711.6007 (a.u.)^3
     number of atoms/cell      =            4
     number of atomic types    =            1
     number of electrons       =        16.00
     number of Kohn-Sham states=           16
     kinetic-energy cutoff     =      40.0000  Ry
     charge density cutoff     =     400.0000  Ry
     convergence threshold     =      1.0E-10
     mixing beta               =       0.3000
     number of iterations used =            8  plain     mixing
     Exchange-correlation      = PBE ( 1  4  3  4 0)

     celldm(1)=   4.662710  celldm(2)=   1.000000  celldm(3)=   8.105698
     celldm(4)=  -0.500000  celldm(5)=   0.000000  celldm(6)=   0.000000

     crystal axes: (cart. coord. in units of alat)
               a(1) = (   1.000000   0.000000   0.000000 )  
               a(2) = (  -0.500000   0.866025   0.000000 )  
               a(3) = (   0.000000   0.000000   8.105698 )  

     reciprocal axes: (cart. coord. in units 2 pi/alat)
               b(1) = (  1.000000  0.577350 -0.000000 )  
               b(2) = (  0.000000  1.154701  0.000000 )  
               b(3) = (  0.000000 -0.000000  0.123370 )  


     PseudoPot. # 1 for C  read from file:
     ../pseudo/C.pbe-rrkjus.UPF
     MD5 check sum: 00fb224312de0c5b6853bd333518df6f
     Pseudo is Ultrasoft, Zval =  4.0
     Generated by new atomic code, or converted to UPF format
     Using radial grid of  627 points,  4 beta functions with: 
                l(1) =   0
                l(2) =   0
                l(3) =   1
                l(4) =   1
     Q(r) pseudized with 0 coefficients 


     atomic species   valence    mass     pseudopotential
        C              4.00    12.01100     C ( 1.00)

     Starting magnetic structure 
     atomic species   magnetization
        C           -0.500

     No symmetry found
          (note:  3 additional sym.ops. were found but ignored
           their fractional translations are incommensurate with FFT grid)

                                    s                        frac. trans.

      isym =  1     identity                                     

 cryst.   s( 1) = (     1          0          0      )
                  (     0          1          0      )
                  (     0          0          1      )

 cart.    s( 1) = (  1.0000000  0.0000000  0.0000000 )
                  (  0.0000000  1.0000000  0.0000000 )
                  (  0.0000000  0.0000000  1.0000000 )


     point group C_1 (1)    
     there are  1 classes
     the character table:

       E    
A      1.00

     the symmetry operations in each class:
     E        1

   Cartesian axes

     site n.     atom                  positions (alat units)
         1           C   tau(   1) = (   0.0000000   0.0000000   2.0264246  )
         2           C   tau(   2) = (   0.0000000   0.5773284   2.0264246  )
         3           C   tau(   3) = (   0.7295128   0.0000000   3.3962876  )
         4           C   tau(   4) = (   0.7295128   0.5773284   3.3962876  )

   Crystallographic axes

     site n.     atom                  positions (cryst. coord.)
         1           C   tau(   1) = (  0.0000000  0.0000000  0.2500000  )
         2           C   tau(   2) = (  0.3333207  0.6666414  0.2500000  )
         3           C   tau(   3) = (  0.7295128  0.0000000  0.4190000  )
         4           C   tau(   4) = (  1.0628335  0.6666414  0.4190000  )

     number of k points=   148  Marzari-Vanderbilt smearing, width (Ry)=  0.0001
                       cart. coord. in units 2pi/alat
        k(    1) = (   0.0000000   0.0000000   0.0000000), wk =   0.0069444
        k(    2) = (   0.0000000   0.0962250   0.0000000), wk =   0.0138889
        k(    3) = (   0.0000000   0.1924501   0.0000000), wk =   0.0138889
        k(    4) = (   0.0000000   0.2886751   0.0000000), wk =   0.0138889
        k(    5) = (   0.0000000   0.3849002   0.0000000), wk =   0.0138889
        k(    6) = (   0.0000000   0.4811252   0.0000000), wk =   0.0138889
        k(    7) = (   0.0000000  -0.5773503   0.0000000), wk =   0.0069444
        k(    8) = (   0.0833333   0.1443376   0.0000000), wk =   0.0138889
        k(    9) = (   0.0833333   0.2405626   0.0000000), wk =   0.0138889
        k(   10) = (   0.0833333   0.3367877   0.0000000), wk =   0.0138889
        k(   11) = (   0.0833333   0.4330127   0.0000000), wk =   0.0138889
        k(   12) = (   0.0833333   0.5292377   0.0000000), wk =   0.0138889
        k(   13) = (   0.1666667   0.2886751   0.0000000), wk =   0.0138889
        k(   14) = (   0.1666667   0.3849002   0.0000000), wk =   0.0138889
        k(   15) = (   0.1666667   0.4811252   0.0000000), wk =   0.0138889
        k(   16) = (   0.1666667   0.5773503   0.0000000), wk =   0.0138889
        k(   17) = (   0.2500000   0.4330127   0.0000000), wk =   0.0138889
        k(   18) = (   0.2500000   0.5292377   0.0000000), wk =   0.0138889
        k(   19) = (   0.3333333   0.5773503   0.0000000), wk =   0.0138889
        k(   20) = (  -0.0833333   0.0481125   0.0000000), wk =   0.0138889
        k(   21) = (   0.0833333   0.0481125   0.0000000), wk =   0.0138889
        k(   22) = (  -0.1666667   0.0962250   0.0000000), wk =   0.0138889
        k(   23) = (   0.1666667   0.0962250   0.0000000), wk =   0.0138889
        k(   24) = (  -0.2500000   0.1443376   0.0000000), wk =   0.0138889
        k(   25) = (   0.2500000   0.1443376   0.0000000), wk =   0.0138889
        k(   26) = (  -0.3333333   0.1924501   0.0000000), wk =   0.0138889
        k(   27) = (   0.3333333   0.1924501   0.0000000), wk =   0.0138889
        k(   28) = (  -0.4166667   0.2405626   0.0000000), wk =   0.0138889
        k(   29) = (   0.4166667   0.2405626   0.0000000), wk =   0.0138889
        k(   30) = (   0.5000000  -0.2886751   0.0000000), wk =   0.0069444
        k(   31) = (  -0.5000000  -0.2886751   0.0000000), wk =   0.0069444
        k(   32) = (  -0.0833333   0.1443376   0.0000000), wk =   0.0138889
        k(   33) = (   0.1666667  -0.0000000   0.0000000), wk =   0.0138889
        k(   34) = (  -0.0833333   0.2405626   0.0000000), wk =   0.0138889
        k(   35) = (  -0.1666667   0.1924501   0.0000000), wk =   0.0138889
        k(   36) = (   0.2500000   0.0481125   0.0000000), wk =   0.0138889
        k(   37) = (  -0.1666667  -0.1924501   0.0000000), wk =   0.0138889
        k(   38) = (   0.2500000  -0.0481125   0.0000000), wk =   0.0138889
        k(   39) = (  -0.0833333   0.3367877   0.0000000), wk =   0.0138889
        k(   40) = (  -0.2500000   0.2405626   0.0000000), wk =   0.0138889
        k(   41) = (   0.3333333   0.0962250   0.0000000), wk =   0.0138889
        k(   42) = (  -0.2500000  -0.2405626   0.0000000), wk =   0.0138889
        k(   43) = (   0.3333333  -0.0962250   0.0000000), wk =   0.0138889
        k(   44) = (  -0.0833333   0.4330127   0.0000000), wk =   0.0138889
        k(   45) = (  -0.3333333   0.2886751   0.0000000), wk =   0.0138889
        k(   46) = (   0.4166667   0.1443376   0.0000000), wk =   0.0138889
        k(   47) = (  -0.3333333  -0.2886751   0.0000000), wk =   0.0138889
        k(   48) = (   0.4166667  -0.1443376   0.0000000), wk =   0.0138889
        k(   49) = (  -0.0833333   0.5292377   0.0000000), wk =   0.0138889
        k(   50) = (  -0.4166667   0.3367877   0.0000000), wk =   0.0138889
        k(   51) = (   0.5000000   0.1924501   0.0000000), wk =   0.0138889
        k(   52) = (  -0.4166667  -0.3367877   0.0000000), wk =   0.0138889
        k(   53) = (   0.5000000  -0.1924501   0.0000000), wk =   0.0138889
        k(   54) = (  -0.1666667   0.2886751   0.0000000), wk =   0.0138889
        k(   55) = (   0.3333333  -0.0000000   0.0000000), wk =   0.0138889
        k(   56) = (  -0.1666667   0.3849002   0.0000000), wk =   0.0138889
        k(   57) = (  -0.2500000   0.3367877   0.0000000), wk =   0.0138889
        k(   58) = (   0.4166667   0.0481125   0.0000000), wk =   0.0138889
        k(   59) = (  -0.2500000  -0.3367877   0.0000000), wk =   0.0138889
        k(   60) = (   0.4166667  -0.0481125   0.0000000), wk =   0.0138889
        k(   61) = (  -0.1666667   0.4811252   0.0000000), wk =   0.0138889
        k(   62) = (  -0.3333333   0.3849002   0.0000000), wk =   0.0138889
        k(   63) = (   0.5000000   0.0962250   0.0000000), wk =   0.0138889
        k(   64) = (  -0.3333333  -0.3849002   0.0000000), wk =   0.0138889
        k(   65) = (   0.5000000  -0.0962250   0.0000000), wk =   0.0138889
        k(   66) = (  -0.4166667   0.4330127   0.0000000), wk =   0.0138889
        k(   67) = (   0.5833333   0.1443376   0.0000000), wk =   0.0138889
        k(   68) = (  -0.2500000   0.4330127   0.0000000), wk =   0.0138889
        k(   69) = (   0.5000000   0.0000000   0.0000000), wk =   0.0138889
        k(   70) = (  -0.2500000   0.5292377   0.0000000), wk =   0.0138889
        k(   71) = (  -0.3333333   0.4811252   0.0000000), wk =   0.0138889
        k(   72) = (   0.5833333   0.0481125   0.0000000), wk =   0.0138889
        k(   73) = (  -0.3333333  -0.4811252   0.0000000), wk =   0.0138889
        k(   74) = (   0.5833333  -0.0481125   0.0000000), wk =   0.0138889
        k(   75) = (   0.0000000   0.0000000   0.0000000), wk =   0.0069444
        k(   76) = (   0.0000000   0.0962250   0.0000000), wk =   0.0138889
        k(   77) = (   0.0000000   0.1924501   0.0000000), wk =   0.0138889
        k(   78) = (   0.0000000   0.2886751   0.0000000), wk =   0.0138889
        k(   79) = (   0.0000000   0.3849002   0.0000000), wk =   0.0138889
        k(   80) = (   0.0000000   0.4811252   0.0000000), wk =   0.0138889
        k(   81) = (   0.0000000  -0.5773503   0.0000000), wk =   0.0069444
        k(   82) = (   0.0833333   0.1443376   0.0000000), wk =   0.0138889
        k(   83) = (   0.0833333   0.2405626   0.0000000), wk =   0.0138889
        k(   84) = (   0.0833333   0.3367877   0.0000000), wk =   0.0138889
        k(   85) = (   0.0833333   0.4330127   0.0000000), wk =   0.0138889
        k(   86) = (   0.0833333   0.5292377   0.0000000), wk =   0.0138889
        k(   87) = (   0.1666667   0.2886751   0.0000000), wk =   0.0138889
        k(   88) = (   0.1666667   0.3849002   0.0000000), wk =   0.0138889
        k(   89) = (   0.1666667   0.4811252   0.0000000), wk =   0.0138889
        k(   90) = (   0.1666667   0.5773503   0.0000000), wk =   0.0138889
        k(   91) = (   0.2500000   0.4330127   0.0000000), wk =   0.0138889
        k(   92) = (   0.2500000   0.5292377   0.0000000), wk =   0.0138889
        k(   93) = (   0.3333333   0.5773503   0.0000000), wk =   0.0138889
        k(   94) = (  -0.0833333   0.0481125   0.0000000), wk =   0.0138889
        k(   95) = (   0.0833333   0.0481125   0.0000000), wk =   0.0138889
        k(   96) = (  -0.1666667   0.0962250   0.0000000), wk =   0.0138889
        k(   97) = (   0.1666667   0.0962250   0.0000000), wk =   0.0138889
        k(   98) = (  -0.2500000   0.1443376   0.0000000), wk =   0.0138889
        k(   99) = (   0.2500000   0.1443376   0.0000000), wk =   0.0138889
        k(  100) = (  -0.3333333   0.1924501   0.0000000), wk =   0.0138889
        k(  101) = (   0.3333333   0.1924501   0.0000000), wk =   0.0138889
        k(  102) = (  -0.4166667   0.2405626   0.0000000), wk =   0.0138889
        k(  103) = (   0.4166667   0.2405626   0.0000000), wk =   0.0138889
        k(  104) = (   0.5000000  -0.2886751   0.0000000), wk =   0.0069444
        k(  105) = (  -0.5000000  -0.2886751   0.0000000), wk =   0.0069444
        k(  106) = (  -0.0833333   0.1443376   0.0000000), wk =   0.0138889
        k(  107) = (   0.1666667  -0.0000000   0.0000000), wk =   0.0138889
        k(  108) = (  -0.0833333   0.2405626   0.0000000), wk =   0.0138889
        k(  109) = (  -0.1666667   0.1924501   0.0000000), wk =   0.0138889
        k(  110) = (   0.2500000   0.0481125   0.0000000), wk =   0.0138889
        k(  111) = (  -0.1666667  -0.1924501   0.0000000), wk =   0.0138889
        k(  112) = (   0.2500000  -0.0481125   0.0000000), wk =   0.0138889
        k(  113) = (  -0.0833333   0.3367877   0.0000000), wk =   0.0138889
        k(  114) = (  -0.2500000   0.2405626   0.0000000), wk =   0.0138889
        k(  115) = (   0.3333333   0.0962250   0.0000000), wk =   0.0138889
        k(  116) = (  -0.2500000  -0.2405626   0.0000000), wk =   0.0138889
        k(  117) = (   0.3333333  -0.0962250   0.0000000), wk =   0.0138889
        k(  118) = (  -0.0833333   0.4330127   0.0000000), wk =   0.0138889
        k(  119) = (  -0.3333333   0.2886751   0.0000000), wk =   0.0138889
        k(  120) = (   0.4166667   0.1443376   0.0000000), wk =   0.0138889
        k(  121) = (  -0.3333333  -0.2886751   0.0000000), wk =   0.0138889
        k(  122) = (   0.4166667  -0.1443376   0.0000000), wk =   0.0138889
        k(  123) = (  -0.0833333   0.5292377   0.0000000), wk =   0.0138889
        k(  124) = (  -0.4166667   0.3367877   0.0000000), wk =   0.0138889
        k(  125) = (   0.5000000   0.1924501   0.0000000), wk =   0.0138889
        k(  126) = (  -0.4166667  -0.3367877   0.0000000), wk =   0.0138889
        k(  127) = (   0.5000000  -0.1924501   0.0000000), wk =   0.0138889
        k(  128) = (  -0.1666667   0.2886751   0.0000000), wk =   0.0138889
        k(  129) = (   0.3333333  -0.0000000   0.0000000), wk =   0.0138889
        k(  130) = (  -0.1666667   0.3849002   0.0000000), wk =   0.0138889
        k(  131) = (  -0.2500000   0.3367877   0.0000000), wk =   0.0138889
        k(  132) = (   0.4166667   0.0481125   0.0000000), wk =   0.0138889
        k(  133) = (  -0.2500000  -0.3367877   0.0000000), wk =   0.0138889
        k(  134) = (   0.4166667  -0.0481125   0.0000000), wk =   0.0138889
        k(  135) = (  -0.1666667   0.4811252   0.0000000), wk =   0.0138889
        k(  136) = (  -0.3333333   0.3849002   0.0000000), wk =   0.0138889
        k(  137) = (   0.5000000   0.0962250   0.0000000), wk =   0.0138889
        k(  138) = (  -0.3333333  -0.3849002   0.0000000), wk =   0.0138889
        k(  139) = (   0.5000000  -0.0962250   0.0000000), wk =   0.0138889
        k(  140) = (  -0.4166667   0.4330127   0.0000000), wk =   0.0138889
        k(  141) = (   0.5833333   0.1443376   0.0000000), wk =   0.0138889
        k(  142) = (  -0.2500000   0.4330127   0.0000000), wk =   0.0138889
        k(  143) = (   0.5000000   0.0000000   0.0000000), wk =   0.0138889
        k(  144) = (  -0.2500000   0.5292377   0.0000000), wk =   0.0138889
        k(  145) = (  -0.3333333   0.4811252   0.0000000), wk =   0.0138889
        k(  146) = (   0.5833333   0.0481125   0.0000000), wk =   0.0138889
        k(  147) = (  -0.3333333  -0.4811252   0.0000000), wk =   0.0138889
        k(  148) = (   0.5833333  -0.0481125   0.0000000), wk =   0.0138889

                       cryst. coord.
        k(    1) = (   0.0000000   0.0000000   0.0000000), wk =   0.0069444
        k(    2) = (   0.0000000   0.0833333   0.0000000), wk =   0.0138889
        k(    3) = (   0.0000000   0.1666667   0.0000000), wk =   0.0138889
        k(    4) = (   0.0000000   0.2500000   0.0000000), wk =   0.0138889
        k(    5) = (   0.0000000   0.3333333   0.0000000), wk =   0.0138889
        k(    6) = (   0.0000000   0.4166667   0.0000000), wk =   0.0138889
        k(    7) = (   0.0000000  -0.5000000   0.0000000), wk =   0.0069444
        k(    8) = (   0.0833333   0.0833333   0.0000000), wk =   0.0138889
        k(    9) = (   0.0833333   0.1666667   0.0000000), wk =   0.0138889
        k(   10) = (   0.0833333   0.2500000   0.0000000), wk =   0.0138889
        k(   11) = (   0.0833333   0.3333333   0.0000000), wk =   0.0138889
        k(   12) = (   0.0833333   0.4166667   0.0000000), wk =   0.0138889
        k(   13) = (   0.1666667   0.1666667   0.0000000), wk =   0.0138889
        k(   14) = (   0.1666667   0.2500000   0.0000000), wk =   0.0138889
        k(   15) = (   0.1666667   0.3333333   0.0000000), wk =   0.0138889
        k(   16) = (   0.1666667   0.4166667   0.0000000), wk =   0.0138889
        k(   17) = (   0.2500000   0.2500000   0.0000000), wk =   0.0138889
        k(   18) = (   0.2500000   0.3333333   0.0000000), wk =   0.0138889
        k(   19) = (   0.3333333   0.3333333   0.0000000), wk =   0.0138889
        k(   20) = (  -0.0833333   0.0833333   0.0000000), wk =   0.0138889
        k(   21) = (   0.0833333   0.0000000   0.0000000), wk =   0.0138889
        k(   22) = (  -0.1666667   0.1666667   0.0000000), wk =   0.0138889
        k(   23) = (   0.1666667   0.0000000   0.0000000), wk =   0.0138889
        k(   24) = (  -0.2500000   0.2500000   0.0000000), wk =   0.0138889
        k(   25) = (   0.2500000   0.0000000   0.0000000), wk =   0.0138889
        k(   26) = (  -0.3333333   0.3333333   0.0000000), wk =   0.0138889
        k(   27) = (   0.3333333   0.0000000   0.0000000), wk =   0.0138889
        k(   28) = (  -0.4166667   0.4166667   0.0000000), wk =   0.0138889
        k(   29) = (   0.4166667   0.0000000   0.0000000), wk =   0.0138889
        k(   30) = (   0.5000000  -0.5000000   0.0000000), wk =   0.0069444
        k(   31) = (  -0.5000000   0.0000000   0.0000000), wk =   0.0069444
        k(   32) = (  -0.0833333   0.1666667   0.0000000), wk =   0.0138889
        k(   33) = (   0.1666667  -0.0833333   0.0000000), wk =   0.0138889
        k(   34) = (  -0.0833333   0.2500000   0.0000000), wk =   0.0138889
        k(   35) = (  -0.1666667   0.2500000   0.0000000), wk =   0.0138889
        k(   36) = (   0.2500000  -0.0833333   0.0000000), wk =   0.0138889
        k(   37) = (  -0.1666667  -0.0833333   0.0000000), wk =   0.0138889
        k(   38) = (   0.2500000  -0.1666667   0.0000000), wk =   0.0138889
        k(   39) = (  -0.0833333   0.3333333   0.0000000), wk =   0.0138889
        k(   40) = (  -0.2500000   0.3333333   0.0000000), wk =   0.0138889
        k(   41) = (   0.3333333  -0.0833333   0.0000000), wk =   0.0138889
        k(   42) = (  -0.2500000  -0.0833333   0.0000000), wk =   0.0138889
        k(   43) = (   0.3333333  -0.2500000   0.0000000), wk =   0.0138889
        k(   44) = (  -0.0833333   0.4166667   0.0000000), wk =   0.0138889
        k(   45) = (  -0.3333333   0.4166667   0.0000000), wk =   0.0138889
        k(   46) = (   0.4166667  -0.0833333   0.0000000), wk =   0.0138889
        k(   47) = (  -0.3333333  -0.0833333   0.0000000), wk =   0.0138889
        k(   48) = (   0.4166667  -0.3333333   0.0000000), wk =   0.0138889
        k(   49) = (  -0.0833333   0.5000000   0.0000000), wk =   0.0138889
        k(   50) = (  -0.4166667   0.5000000   0.0000000), wk =   0.0138889
        k(   51) = (   0.5000000  -0.0833333   0.0000000), wk =   0.0138889
        k(   52) = (  -0.4166667  -0.0833333   0.0000000), wk =   0.0138889
        k(   53) = (   0.5000000  -0.4166667   0.0000000), wk =   0.0138889
        k(   54) = (  -0.1666667   0.3333333   0.0000000), wk =   0.0138889
        k(   55) = (   0.3333333  -0.1666667   0.0000000), wk =   0.0138889
        k(   56) = (  -0.1666667   0.4166667   0.0000000), wk =   0.0138889
        k(   57) = (  -0.2500000   0.4166667   0.0000000), wk =   0.0138889
        k(   58) = (   0.4166667  -0.1666667   0.0000000), wk =   0.0138889
        k(   59) = (  -0.2500000  -0.1666667   0.0000000), wk =   0.0138889
        k(   60) = (   0.4166667  -0.2500000   0.0000000), wk =   0.0138889
        k(   61) = (  -0.1666667   0.5000000   0.0000000), wk =   0.0138889
        k(   62) = (  -0.3333333   0.5000000   0.0000000), wk =   0.0138889
        k(   63) = (   0.5000000  -0.1666667   0.0000000), wk =   0.0138889
        k(   64) = (  -0.3333333  -0.1666667   0.0000000), wk =   0.0138889
        k(   65) = (   0.5000000  -0.3333333   0.0000000), wk =   0.0138889
        k(   66) = (  -0.4166667   0.5833333   0.0000000), wk =   0.0138889
        k(   67) = (   0.5833333  -0.1666667   0.0000000), wk =   0.0138889
        k(   68) = (  -0.2500000   0.5000000   0.0000000), wk =   0.0138889
        k(   69) = (   0.5000000  -0.2500000   0.0000000), wk =   0.0138889
        k(   70) = (  -0.2500000   0.5833333   0.0000000), wk =   0.0138889
        k(   71) = (  -0.3333333   0.5833333   0.0000000), wk =   0.0138889
        k(   72) = (   0.5833333  -0.2500000   0.0000000), wk =   0.0138889
        k(   73) = (  -0.3333333  -0.2500000   0.0000000), wk =   0.0138889
        k(   74) = (   0.5833333  -0.3333333   0.0000000), wk =   0.0138889
        k(   75) = (   0.0000000   0.0000000   0.0000000), wk =   0.0069444
        k(   76) = (   0.0000000   0.0833333   0.0000000), wk =   0.0138889
        k(   77) = (   0.0000000   0.1666667   0.0000000), wk =   0.0138889
        k(   78) = (   0.0000000   0.2500000   0.0000000), wk =   0.0138889
        k(   79) = (   0.0000000   0.3333333   0.0000000), wk =   0.0138889
        k(   80) = (   0.0000000   0.4166667   0.0000000), wk =   0.0138889
        k(   81) = (   0.0000000  -0.5000000   0.0000000), wk =   0.0069444
        k(   82) = (   0.0833333   0.0833333   0.0000000), wk =   0.0138889
        k(   83) = (   0.0833333   0.1666667   0.0000000), wk =   0.0138889
        k(   84) = (   0.0833333   0.2500000   0.0000000), wk =   0.0138889
        k(   85) = (   0.0833333   0.3333333   0.0000000), wk =   0.0138889
        k(   86) = (   0.0833333   0.4166667   0.0000000), wk =   0.0138889
        k(   87) = (   0.1666667   0.1666667   0.0000000), wk =   0.0138889
        k(   88) = (   0.1666667   0.2500000   0.0000000), wk =   0.0138889
        k(   89) = (   0.1666667   0.3333333   0.0000000), wk =   0.0138889
        k(   90) = (   0.1666667   0.4166667   0.0000000), wk =   0.0138889
        k(   91) = (   0.2500000   0.2500000   0.0000000), wk =   0.0138889
        k(   92) = (   0.2500000   0.3333333   0.0000000), wk =   0.0138889
        k(   93) = (   0.3333333   0.3333333   0.0000000), wk =   0.0138889
        k(   94) = (  -0.0833333   0.0833333   0.0000000), wk =   0.0138889
        k(   95) = (   0.0833333   0.0000000   0.0000000), wk =   0.0138889
        k(   96) = (  -0.1666667   0.1666667   0.0000000), wk =   0.0138889
        k(   97) = (   0.1666667   0.0000000   0.0000000), wk =   0.0138889
        k(   98) = (  -0.2500000   0.2500000   0.0000000), wk =   0.0138889
        k(   99) = (   0.2500000   0.0000000   0.0000000), wk =   0.0138889
        k(  100) = (  -0.3333333   0.3333333   0.0000000), wk =   0.0138889
        k(  101) = (   0.3333333   0.0000000   0.0000000), wk =   0.0138889
        k(  102) = (  -0.4166667   0.4166667   0.0000000), wk =   0.0138889
        k(  103) = (   0.4166667   0.0000000   0.0000000), wk =   0.0138889
        k(  104) = (   0.5000000  -0.5000000   0.0000000), wk =   0.0069444
        k(  105) = (  -0.5000000   0.0000000   0.0000000), wk =   0.0069444
        k(  106) = (  -0.0833333   0.1666667   0.0000000), wk =   0.0138889
        k(  107) = (   0.1666667  -0.0833333   0.0000000), wk =   0.0138889
        k(  108) = (  -0.0833333   0.2500000   0.0000000), wk =   0.0138889
        k(  109) = (  -0.1666667   0.2500000   0.0000000), wk =   0.0138889
        k(  110) = (   0.2500000  -0.0833333   0.0000000), wk =   0.0138889
        k(  111) = (  -0.1666667  -0.0833333   0.0000000), wk =   0.0138889
        k(  112) = (   0.2500000  -0.1666667   0.0000000), wk =   0.0138889
        k(  113) = (  -0.0833333   0.3333333   0.0000000), wk =   0.0138889
        k(  114) = (  -0.2500000   0.3333333   0.0000000), wk =   0.0138889
        k(  115) = (   0.3333333  -0.0833333   0.0000000), wk =   0.0138889
        k(  116) = (  -0.2500000  -0.0833333   0.0000000), wk =   0.0138889
        k(  117) = (   0.3333333  -0.2500000   0.0000000), wk =   0.0138889
        k(  118) = (  -0.0833333   0.4166667   0.0000000), wk =   0.0138889
        k(  119) = (  -0.3333333   0.4166667   0.0000000), wk =   0.0138889
        k(  120) = (   0.4166667  -0.0833333   0.0000000), wk =   0.0138889
        k(  121) = (  -0.3333333  -0.0833333   0.0000000), wk =   0.0138889
        k(  122) = (   0.4166667  -0.3333333   0.0000000), wk =   0.0138889
        k(  123) = (  -0.0833333   0.5000000   0.0000000), wk =   0.0138889
        k(  124) = (  -0.4166667   0.5000000   0.0000000), wk =   0.0138889
        k(  125) = (   0.5000000  -0.0833333   0.0000000), wk =   0.0138889
        k(  126) = (  -0.4166667  -0.0833333   0.0000000), wk =   0.0138889
        k(  127) = (   0.5000000  -0.4166667   0.0000000), wk =   0.0138889
        k(  128) = (  -0.1666667   0.3333333   0.0000000), wk =   0.0138889
        k(  129) = (   0.3333333  -0.1666667   0.0000000), wk =   0.0138889
        k(  130) = (  -0.1666667   0.4166667   0.0000000), wk =   0.0138889
        k(  131) = (  -0.2500000   0.4166667   0.0000000), wk =   0.0138889
        k(  132) = (   0.4166667  -0.1666667   0.0000000), wk =   0.0138889
        k(  133) = (  -0.2500000  -0.1666667   0.0000000), wk =   0.0138889
        k(  134) = (   0.4166667  -0.2500000   0.0000000), wk =   0.0138889
        k(  135) = (  -0.1666667   0.5000000   0.0000000), wk =   0.0138889
        k(  136) = (  -0.3333333   0.5000000   0.0000000), wk =   0.0138889
        k(  137) = (   0.5000000  -0.1666667   0.0000000), wk =   0.0138889
        k(  138) = (  -0.3333333  -0.1666667   0.0000000), wk =   0.0138889
        k(  139) = (   0.5000000  -0.3333333   0.0000000), wk =   0.0138889
        k(  140) = (  -0.4166667   0.5833333   0.0000000), wk =   0.0138889
        k(  141) = (   0.5833333  -0.1666667   0.0000000), wk =   0.0138889
        k(  142) = (  -0.2500000   0.5000000   0.0000000), wk =   0.0138889
        k(  143) = (   0.5000000  -0.2500000   0.0000000), wk =   0.0138889
        k(  144) = (  -0.2500000   0.5833333   0.0000000), wk =   0.0138889
        k(  145) = (  -0.3333333   0.5833333   0.0000000), wk =   0.0138889
        k(  146) = (   0.5833333  -0.2500000   0.0000000), wk =   0.0138889
        k(  147) = (  -0.3333333  -0.2500000   0.0000000), wk =   0.0138889
        k(  148) = (   0.5833333  -0.3333333   0.0000000), wk =   0.0138889

     Dense  grid:    96043 G-vectors     FFT dimensions: (  30,  30, 243)

     Smooth grid:    24369 G-vectors     FFT dimensions: (  20,  20, 160)

     Largest allocated arrays     est. size (Mb)     dimensions
        Kohn-Sham Wavefunctions         0.75 Mb     (    3054,   16)
        NL pseudopotentials             1.49 Mb     (    3054,   32)
        Each V/rho on FFT grid          6.67 Mb     (  218700,   2)
        Each G-vector array             0.73 Mb     (   96043)
        G-vector shells                 0.04 Mb     (    4763)
     Largest temporary arrays     est. size (Mb)     dimensions
        Auxiliary wavefunctions         2.98 Mb     (    3054,   64)
        Each subspace H/S matrix        0.06 Mb     (      64,   64)
        Each <psi_i|beta_j> matrix      0.01 Mb     (      32,   16)
        Arrays for rho mixing          26.70 Mb     (  218700,    8)

     Initial potential from superposition of free atoms

     starting charge   15.99979, renormalised to   16.00000

     negative rho (up, down):  2.605E-06 7.816E-06
     Starting wfc are   16 randomized atomic wfcs

     total cpu time spent up to now is        9.0 secs

     per-process dynamical memory:   163.4 Mb

     Self-consistent Calculation

     iteration #  1     ecut=    40.00 Ry     beta=0.30
     Davidson diagonalization with overlap
     ethr =  1.00E-02,  avg # of iterations =  6.1

     negative rho (up, down):  1.453E-06 4.764E-06

     Magnetic moment per site:
     atom:    1    charge:    1.6477    magn:   -0.5743    constr:    0.0000
     atom:    2    charge:    1.6477    magn:   -0.5743    constr:    0.0000
     atom:    3    charge:    1.6475    magn:   -0.5742    constr:    0.0000
     atom:    4    charge:    1.6475    magn:   -0.5742    constr:    0.0000

     total cpu time spent up to now is       45.2 secs

 ------ SPIN UP ------------


          k = 0.0000 0.0000 0.0000     band energies (ev):

   -21.7556 -21.6402  -9.4568  -8.6300  -5.8647  -5.8596  -5.8579  -5.8562
     3.2922   3.8307   4.6919   5.8398   5.8620   5.8697   5.8739   5.8854

     occupation numbers 
     1.0000   1.0000   1.0000   1.0000   1.0000   1.0000   1.0000   1.0000
     0.0000   0.0000   0.0000   0.0000   0.0000   0.0000   0.0000   0.0000

          k = 0.0000 0.0962 0.0000     band energies (ev):

   -21.5952 -21.4810  -9.2621  -8.4410  -6.4715  -6.4586  -6.1766  -6.1747
     3.5074   4.0524   4.9655   5.9445   5.9612   6.1087   6.5336   6.5386

     occupation numbers 
     1.0000   1.0000   1.0000   1.0000   1.0000   1.0000   1.0000   1.0000
     0.0000   0.0000   0.0000   0.0000   0.0000   0.0000   0.0000   0.0000

          k = 0.0000 0.1925 0.0000     band energies (ev):

   -21.1161 -21.0054  -8.6846  -8.0157  -7.9921  -7.8804  -6.9268  -6.9246
     4.1542   4.7140   5.8207   5.9984   6.0801   6.7802   7.1741   7.4153

     occupation numbers 
     1.0000   1.0000   1.0000   1.0000   1.0000   1.0000   1.0000   1.0000
     0.0000   0.0000   0.0000   0.0000   0.0000   0.0000   0.0000   0.0000

          k = 0.0000 0.2887 0.0000     band energies (ev):

   -20.3242 -20.2191 -10.0173  -9.9804  -7.7695  -7.7667  -7.7428  -6.9698
     5.1999   5.2187   5.4783   5.7339   5.8608   5.9392   6.8005   7.8479

     occupation numbers 
     1.0000   1.0000   1.0000   1.0000   1.0000   1.0000   1.0000   1.0000
     0.0000   0.0000   0.0000   0.0000   0.0000   0.0000   0.0000   0.0000

          k = 0.0000 0.3849 0.0000     band energies (ev):

   -19.2324 -19.1348 -12.1360 -12.0862  -8.4763  -8.4738  -6.4896  -5.7634
     2.9536   3.3916   5.5375   5.5456   6.7744   7.3723   8.2754   9.2022

     occupation numbers 
     1.0000   1.0000   1.0000   1.0000   1.0000   1.0000   1.0000   1.0000
     0.0000   0.0000   0.0000   0.0000   0.0000   0.0000   0.0000   0.0000

          k = 0.0000 0.4811 0.0000     band energies (ev):

   -17.8732 -17.7842 -14.1652 -14.1034  -8.9346  -8.9319  -5.0863  -4.4315
     0.8536   1.4322   5.3494   5.3613   8.6427   9.3178  10.3931  11.2875

     occupation numbers 
     1.0000   1.0000   1.0000   1.0000   1.0000   1.0000   1.0000   1.0000
     0.0000   0.0000   0.0000   0.0000   0.0000   0.0000   0.0000   0.0000

          k = 0.0000-0.5774 0.0000     band energies (ev):

   -16.6557 -16.5711 -15.6140 -15.5461  -9.0917  -9.0891  -4.2573  -3.6657
    -0.2224   0.4436   5.2793   5.2960  10.7476  10.8534  11.6968  11.9056

     occupation numbers 
     1.0000   1.0000   1.0000   1.0000   1.0000   1.0000   1.0000   1.0000
     0.0000   0.0000   0.0000   0.0000   0.0000   0.0000   0.0000   0.0000

          k = 0.0833 0.1443 0.0000     band energies (ev):

   -21.2755 -21.1636  -8.8758  -8.0664  -7.4459  -7.4310  -6.8117  -6.8049
     3.9386   4.4941   5.3634   6.2404   6.2793   6.5560   6.5993   7.4225

     occupation numbers 
     1.0000   1.0000   1.0000   1.0000   1.0000   1.0000   1.0000   1.0000
     0.0000   0.0000   0.0000   0.0000   0.0000   0.0000   0.0000   0.0000

          k = 0.0833 0.2406 0.0000     band energies (ev):

   -20.6400 -20.5327  -9.0731  -9.0462  -8.1155  -7.7577  -7.7465  -7.3296
     4.8033   5.3721   6.0435   6.2493   6.4752   6.5133   6.9418   7.4188

     occupation numbers 
     1.0000   1.0000   1.0000   1.0000   1.0000   1.0000   1.0000   1.0000
     0.0000   0.0000   0.0000   0.0000   0.0000   0.0000   0.0000   0.0000

          k = 0.0833 0.3368 0.0000     band energies (ev):

   -19.6979 -19.5973 -11.0582 -11.0168  -8.6109  -8.5954  -7.0113  -6.2641
     3.9567   4.2843   6.0101   6.3152   6.4455   6.7281   7.7585   8.7101

     occupation numbers 
     1.0000   1.0000   1.0000   1.0000   1.0000   1.0000   1.0000   1.0000
     0.0000   0.0000   0.0000   0.0000   0.0000   0.0000   0.0000   0.0000

          k = 0.0833 0.4330 0.0000     band energies (ev):

   -18.4692 -18.3768 -13.1035 -13.0488  -9.2259  -9.2084  -5.6486  -4.9598
     1.7879   2.2575   6.0940   6.1300   7.8159   8.4687   9.3691  10.1120

     occupation numbers 
     1.0000   1.0000   1.0000   1.0000   1.0000   1.0000   1.0000   1.0000
     0.0000   0.0000   0.0000   0.0000   0.0000   0.0000   0.0000   0.0000

          k = 0.0833 0.5292 0.0000     band energies (ev):

   -17.0332 -16.9489 -14.9785 -14.9131  -9.5449  -9.5266  -4.3603  -3.7501
     0.0517   0.6470   5.9569   6.0012   9.8308  10.5500  11.2559  11.9657

     occupation numbers 
     1.0000   1.0000   1.0000   1.0000   1.0000   1.0000   1.0000   1.0000
     0.0000   0.0000   0.0000   0.0000   0.0000   0.0000   0.0000   0.0000

          k = 0.1667 0.2887 0.0000     band energies (ev):

   -19.8542 -19.7526 -10.3536 -10.3272  -9.0383  -9.0210  -7.1866  -6.4349
     4.3966   4.6382   5.8811   6.4955   7.6044   7.7125   7.9940   9.1373

     occupation numbers 
     1.0000   1.0000   1.0000   1.0000   1.0000   1.0000   1.0000   1.0000
     0.0000   0.0000   0.0000   0.0000   0.0000   0.0000   0.0000   0.0000

          k = 0.1667 0.3849 0.0000     band energies (ev):

   -18.7736 -18.6797 -12.0143 -11.9731 -10.0534 -10.0274  -5.9477  -5.2446
     2.5003   2.8135   7.3512   7.8544   8.0367   8.0840  10.3621  10.5817

     occupation numbers 
     1.0000   1.0000   1.0000   1.0000   1.0000   1.0000   1.0000   1.0000
     0.0000   0.0000   0.0000   0.0000   0.0000   0.0000   0.0000   0.0000

          k = 0.1667 0.4811 0.0000     band energies (ev):

   -17.4353 -17.3500 -13.8545 -13.7978 -10.6156 -10.5840  -4.5406  -3.9047
     0.6221   1.0469   7.7283   7.8359   9.2691   9.8179  11.8599  12.5424

     occupation numbers 
     1.0000   1.0000   1.0000   1.0000   1.0000   1.0000   1.0000   1.0000
     0.0000   0.0000   0.0000   0.0000   0.0000   0.0000   0.0000   0.0000

          k = 0.1667 0.5774 0.0000     band energies (ev):

   -16.2472 -16.1664 -15.2313 -15.1680 -10.7964 -10.7633  -3.6665  -3.0852
    -0.4266   0.0764   7.6542   7.7717  10.4138  11.0477  11.2484  11.5339

     occupation numbers 
     1.0000   1.0000   1.0000   1.0000   1.0000   1.0000   1.0000   0.0000
     0.0000   0.0000   0.0000   0.0000   0.0000   0.0000   0.0000   0.0000

          k = 0.2500 0.4330 0.0000     band energies (ev):

   -17.5782 -17.4929 -13.0193 -12.9821 -11.4558 -11.4288  -4.6158  -3.9826
     0.9266   1.2440   8.9712   9.5377   9.9349  10.0775  10.2913  10.4561

     occupation numbers 
     1.0000   1.0000   1.0000   1.0000   1.0000   1.0000   1.0000   1.0000
     0.0000   0.0000   0.0000   0.0000   0.0000   0.0000   0.0000   0.0000

          k = 0.2500 0.5292 0.0000     band energies (ev):

   -16.2008 -16.1239 -14.3878 -14.3352 -12.1433 -12.1060  -3.2546  -2.6807
    -0.5626  -0.2004   9.4499   9.8136  10.1646  10.7656  10.7769  11.7123

     occupation numbers 
     1.0000   1.0000   1.0000   1.0000   1.0000   1.0000   0.0000   0.0000
     0.0000   0.0000   0.0000   0.0000   0.0000   0.0000   0.0000   0.0000

          k = 0.3333 0.5774 0.0000     band energies (ev):

   -15.0280 -15.0182 -14.9683 -14.9572 -12.9811 -12.9462  -1.9250  -1.8501
    -1.4644  -1.3775   9.0928  10.3998  11.0389  11.3065  11.7615  11.8720

     occupation numbers 
     1.0000   1.0000   1.0000   1.0000   1.0000   1.0000   0.0000   0.0000
     0.0000   0.0000   0.0000   0.0000   0.0000   0.0000   0.0000   0.0000

          k =-0.0833 0.0481 0.0000     band energies (ev):

   -21.5952 -21.4810  -9.2620  -8.4412  -6.4700  -6.4579  -6.1806  -6.1730
     3.5107   4.0518   5.3909   5.9455   5.9782   6.0927   6.5293   6.5458

     occupation numbers 
     1.0000   1.0000   1.0000   1.0000   1.0000   1.0000   1.0000   1.0000
     0.0000   0.0000   0.0000   0.0000   0.0000   0.0000   0.0000   0.0000

          k = 0.0833 0.0481 0.0000     band energies (ev):

   -21.5952 -21.4810  -9.2620  -8.4412  -6.4700  -6.4579  -6.1806  -6.1730
     3.5075   4.0543   4.9523   5.9400   5.9592   6.1251   6.5291   6.5458

     occupation numbers 
     1.0000   1.0000   1.0000   1.0000   1.0000   1.0000   1.0000   1.0000
     0.0000   0.0000   0.0000   0.0000   0.0000   0.0000   0.0000   0.0000

          k =-0.1667 0.0962 0.0000     band energies (ev):

   -21.1160 -21.0054  -8.6842  -8.0154  -7.9906  -7.8813  -6.9316  -6.9218
     4.1528   4.7154   5.7802   6.0013   6.0531   6.7447   7.2099   7.3690

     occupation numbers 
     1.0000   1.0000   1.0000   1.0000   1.0000   1.0000   1.0000   1.0000
     0.0000   0.0000   0.0000   0.0000   0.0000   0.0000   0.0000   0.0000

          k = 0.1667 0.0962 0.0000     band energies (ev):

   -21.1160 -21.0054  -8.6842  -8.0154  -7.9906  -7.8813  -6.9316  -6.9217
     4.1576   4.7139   5.8636   6.0077   6.1307   6.7464   7.2390   7.4310

     occupation numbers 
     1.0000   1.0000   1.0000   1.0000   1.0000   1.0000   1.0000   1.0000
     0.0000   0.0000   0.0000   0.0000   0.0000   0.0000   0.0000   0.0000

          k =-0.2500 0.1443 0.0000     band energies (ev):

   -20.3241 -20.2192 -10.0172  -9.9792  -7.7746  -7.7631  -7.7409  -6.9724
     5.1868   5.2014   5.4971   5.7622   5.8451   5.9363   6.8124   7.8472

     occupation numbers 
     1.0000   1.0000   1.0000   1.0000   1.0000   1.0000   1.0000   1.0000
     0.0000   0.0000   0.0000   0.0000   0.0000   0.0000   0.0000   0.0000

          k = 0.2500 0.1443 0.0000     band energies (ev):

   -20.3241 -20.2192 -10.0172  -9.9792  -7.7745  -7.7632  -7.7409  -6.9724
     5.1858   5.2023   5.4976   5.7671   5.8464   5.9485   6.7184   7.7704

     occupation numbers 
     1.0000   1.0000   1.0000   1.0000   1.0000   1.0000   1.0000   1.0000
     0.0000   0.0000   0.0000   0.0000   0.0000   0.0000   0.0000   0.0000

          k =-0.3333 0.1925 0.0000     band energies (ev):

   -19.2320 -19.1351 -12.1360 -12.0853  -8.4823  -8.4695  -6.4823  -5.7725
     2.9594   3.3907   5.4911   5.5917   6.7743   7.4063   8.2704   9.1894

     occupation numbers 
     1.0000   1.0000   1.0000   1.0000   1.0000   1.0000   1.0000   1.0000
     0.0000   0.0000   0.0000   0.0000   0.0000   0.0000   0.0000   0.0000

          k = 0.3333 0.1925 0.0000     band energies (ev):

   -19.2320 -19.1351 -12.1360 -12.0853  -8.4821  -8.4697  -6.4823  -5.7725
     2.9592   3.3905   5.4911   5.5916   6.7740   7.3735   8.2830   9.2313

     occupation numbers 
     1.0000   1.0000   1.0000   1.0000   1.0000   1.0000   1.0000   1.0000
     0.0000   0.0000   0.0000   0.0000   0.0000   0.0000   0.0000   0.0000

          k =-0.4167 0.2406 0.0000     band energies (ev):

   -17.8719 -17.7854 -14.1649 -14.1029  -8.9405  -8.9272  -5.0572  -4.4692
     0.8979   1.3994   5.3041   5.4071   8.6413   9.3371  10.2800  11.0186

     occupation numbers 
     1.0000   1.0000   1.0000   1.0000   1.0000   1.0000   1.0000   1.0000
     0.0000   0.0000   0.0000   0.0000   0.0000   0.0000   0.0000   0.0000

          k = 0.4167 0.2406 0.0000     band energies (ev):

   -17.8720 -17.7854 -14.1650 -14.1029  -8.9404  -8.9270  -5.0572  -4.4692
     0.8979   1.3994   5.3041   5.4066   8.6420   9.3148  10.3549  11.1182

     occupation numbers 
     1.0000   1.0000   1.0000   1.0000   1.0000   1.0000   1.0000   1.0000
     0.0000   0.0000   0.0000   0.0000   0.0000   0.0000   0.0000   0.0000

          k = 0.5000-0.2887 0.0000     band energies (ev):

   -16.6422 -16.5865 -15.6016 -15.5557  -9.0977  -9.0843  -4.1693  -3.7815
    -0.1119   0.3639   5.2372   5.3391  10.7643  10.8376  11.5752  12.0801

     occupation numbers 
     1.0000   1.0000   1.0000   1.0000   1.0000   1.0000   1.0000   1.0000
     0.0000   0.0000   0.0000   0.0000   0.0000   0.0000   0.0000   0.0000

          k =-0.5000-0.2887 0.0000     band energies (ev):

   -16.6422 -16.5865 -15.6015 -15.5558  -9.0977  -9.0843  -4.1693  -3.7815
    -0.1116   0.3640   5.2377   5.3394  10.7597  10.8771  11.5935  12.7532

     occupation numbers 
     1.0000   1.0000   1.0000   1.0000   1.0000   1.0000   1.0000   1.0000
     0.0000   0.0000   0.0000   0.0000   0.0000   0.0000   0.0000   0.0000

          k =-0.0833 0.1443 0.0000     band energies (ev):

   -21.2754 -21.1636  -8.8759  -8.0664  -7.4460  -7.4310  -6.8117  -6.8049
     3.9391   4.4951   5.3551   6.2390   6.2797   6.5745   6.6128   7.4225

     occupation numbers 
     1.0000   1.0000   1.0000   1.0000   1.0000   1.0000   1.0000   1.0000
     0.0000   0.0000   0.0000   0.0000   0.0000   0.0000   0.0000   0.0000

          k = 0.1667-0.0000 0.0000     band energies (ev):

   -21.2754 -21.1636  -8.8754  -8.0668  -7.4484  -7.4264  -6.8153  -6.8036
     3.9402   4.5213   5.4365   6.2472   6.2827   6.5849   7.4028   7.4481

     occupation numbers 
     1.0000   1.0000   1.0000   1.0000   1.0000   1.0000   1.0000   1.0000
     0.0000   0.0000   0.0000   0.0000   0.0000   0.0000   0.0000   0.0000

          k =-0.0833 0.2406 0.0000     band energies (ev):

   -20.6400 -20.5327  -9.0731  -9.0462  -8.1155  -7.7577  -7.7465  -7.3296
     4.8049   5.3748   6.0438   6.2493   6.4620   6.5108   6.9364   7.4349

     occupation numbers 
     1.0000   1.0000   1.0000   1.0000   1.0000   1.0000   1.0000   1.0000
     0.0000   0.0000   0.0000   0.0000   0.0000   0.0000   0.0000   0.0000

          k =-0.1667 0.1925 0.0000     band energies (ev):

   -20.6399 -20.5327  -9.0725  -9.0457  -8.1149  -7.7596  -7.7456  -7.3304
     4.8001   5.3691   6.0382   6.2509   6.3873   6.5248   6.6407   7.4349

     occupation numbers 
     1.0000   1.0000   1.0000   1.0000   1.0000   1.0000   1.0000   1.0000
     0.0000   0.0000   0.0000   0.0000   0.0000   0.0000   0.0000   0.0000

          k = 0.2500 0.0481 0.0000     band energies (ev):

   -20.6399 -20.5328  -9.0749  -9.0424  -8.1142  -7.7614  -7.7450  -7.3313
     4.7977   5.3688   6.0076   6.2261   6.3046   6.4902   6.5531   7.3925

     occupation numbers 
     1.0000   1.0000   1.0000   1.0000   1.0000   1.0000   1.0000   1.0000
     0.0000   0.0000   0.0000   0.0000   0.0000   0.0000   0.0000   0.0000

          k =-0.1667-0.1925 0.0000     band energies (ev):

   -20.6399 -20.5327  -9.0725  -9.0457  -8.1149  -7.7596  -7.7457  -7.3304
     4.7977   5.3699   6.0383   6.2469   6.3785   6.5249   6.5921   7.4094

     occupation numbers 
     1.0000   1.0000   1.0000   1.0000   1.0000   1.0000   1.0000   1.0000
     0.0000   0.0000   0.0000   0.0000   0.0000   0.0000   0.0000   0.0000

          k = 0.2500-0.0481 0.0000     band energies (ev):

   -20.6399 -20.5328  -9.0749  -9.0424  -8.1141  -7.7614  -7.7450  -7.3312
     4.7990   5.3697   6.0081   6.2894   6.3645   6.5130   6.6151   7.4415

     occupation numbers 
     1.0000   1.0000   1.0000   1.0000   1.0000   1.0000   1.0000   1.0000
     0.0000   0.0000   0.0000   0.0000   0.0000   0.0000   0.0000   0.0000

          k =-0.0833 0.3368 0.0000     band energies (ev):

   -19.6979 -19.5973 -11.0582 -11.0168  -8.6108  -8.5954  -7.0113  -6.2641
     3.9571   4.2843   6.0103   6.3155   6.4452   6.7273   7.6517   8.6614

     occupation numbers 
     1.0000   1.0000   1.0000   1.0000   1.0000   1.0000   1.0000   1.0000
     0.0000   0.0000   0.0000   0.0000   0.0000   0.0000   0.0000   0.0000

          k =-0.2500 0.2406 0.0000     band energies (ev):

   -19.6978 -19.5974 -11.0578 -11.0162  -8.6130  -8.5944  -7.0082  -6.2679
     3.9565   4.2869   6.0011   6.3502   6.4242   6.7334   7.6422   8.5935

     occupation numbers 
     1.0000   1.0000   1.0000   1.0000   1.0000   1.0000   1.0000   1.0000
     0.0000   0.0000   0.0000   0.0000   0.0000   0.0000   0.0000   0.0000

          k = 0.3333 0.0962 0.0000     band energies (ev):

   -19.6977 -19.5975 -11.0592 -11.0146  -8.6136  -8.5942  -7.0071  -6.2691
     3.9277   4.3198   6.0030   6.3259   6.4393   6.7280   7.6264   8.5993

     occupation numbers 
     1.0000   1.0000   1.0000   1.0000   1.0000   1.0000   1.0000   1.0000
     0.0000   0.0000   0.0000   0.0000   0.0000   0.0000   0.0000   0.0000

          k =-0.2500-0.2406 0.0000     band energies (ev):

   -19.6978 -19.5974 -11.0578 -11.0162  -8.6130  -8.5944  -7.0082  -6.2679
     3.9566   4.2869   6.0020   6.3502   6.4245   6.7424   7.6222   8.5763

     occupation numbers 
     1.0000   1.0000   1.0000   1.0000   1.0000   1.0000   1.0000   1.0000
     0.0000   0.0000   0.0000   0.0000   0.0000   0.0000   0.0000   0.0000

          k = 0.3333-0.0962 0.0000     band energies (ev):

   -19.6977 -19.5975 -11.0592 -11.0146  -8.6136  -8.5942  -7.0071  -6.2692
     3.9279   4.3197   6.0034   6.3259   6.4399   6.7280   7.8365   8.7452

     occupation numbers 
     1.0000   1.0000   1.0000   1.0000   1.0000   1.0000   1.0000   1.0000
     0.0000   0.0000   0.0000   0.0000   0.0000   0.0000   0.0000   0.0000

          k =-0.0833 0.4330 0.0000     band energies (ev):

   -18.4692 -18.3768 -13.1036 -13.0488  -9.2259  -9.2084  -5.6486  -4.9598
     1.7878   2.2574   6.0940   6.1300   7.8152   8.4624   9.3805  10.1087

     occupation numbers 
     1.0000   1.0000   1.0000   1.0000   1.0000   1.0000   1.0000   1.0000
     0.0000   0.0000   0.0000   0.0000   0.0000   0.0000   0.0000   0.0000

          k =-0.3333 0.2887 0.0000     band energies (ev):

   -18.4686 -18.3773 -13.1033 -13.0483  -9.2280  -9.2074  -5.6356  -4.9762
     1.8081   2.2434   6.0586   6.1680   7.8181   8.4650   9.3800  10.1499

     occupation numbers 
     1.0000   1.0000   1.0000   1.0000   1.0000   1.0000   1.0000   1.0000
     0.0000   0.0000   0.0000   0.0000   0.0000   0.0000   0.0000   0.0000

          k = 0.4167 0.1443 0.0000     band energies (ev):

   -18.4685 -18.3774 -13.1041 -13.0474  -9.2282  -9.2073  -5.6344  -4.9775
     1.7865   2.2674   6.0584   6.1653   7.8180   8.4492   9.4163  10.2270

     occupation numbers 
     1.0000   1.0000   1.0000   1.0000   1.0000   1.0000   1.0000   1.0000
     0.0000   0.0000   0.0000   0.0000   0.0000   0.0000   0.0000   0.0000

          k =-0.3333-0.2887 0.0000     band energies (ev):

   -18.4687 -18.3773 -13.1033 -13.0483  -9.2280  -9.2074  -5.6356  -4.9762
     1.8083   2.2437   6.0585   6.1681   7.8170   8.4635   9.4293  10.1706

     occupation numbers 
     1.0000   1.0000   1.0000   1.0000   1.0000   1.0000   1.0000   1.0000
     0.0000   0.0000   0.0000   0.0000   0.0000   0.0000   0.0000   0.0000

          k = 0.4167-0.1443 0.0000     band energies (ev):

   -18.4686 -18.3774 -13.1041 -13.0474  -9.2282  -9.2074  -5.6344  -4.9775
     1.7868   2.2671   6.0584   6.1654   7.8155   8.4582   9.4006  10.1445

     occupation numbers 
     1.0000   1.0000   1.0000   1.0000   1.0000   1.0000   1.0000   1.0000
     0.0000   0.0000   0.0000   0.0000   0.0000   0.0000   0.0000   0.0000

          k =-0.0833 0.5292 0.0000     band energies (ev):

   -17.0331 -16.9489 -14.9785 -14.9131  -9.5449  -9.5266  -4.3603  -3.7501
     0.0515   0.6471   5.9569   6.0012   9.8441  10.5406  11.2106  11.9087

     occupation numbers 
     1.0000   1.0000   1.0000   1.0000   1.0000   1.0000   1.0000   1.0000
     0.0000   0.0000   0.0000   0.0000   0.0000   0.0000   0.0000   0.0000

          k =-0.4167 0.3368 0.0000     band energies (ev):

   -17.0297 -16.9525 -14.9764 -14.9142  -9.5470  -9.5256  -4.3019  -3.8276
     0.1275   0.5938   5.9244   6.0348   9.8372  10.5218  11.2274  11.8998

     occupation numbers 
     1.0000   1.0000   1.0000   1.0000   1.0000   1.0000   1.0000   1.0000
     0.0000   0.0000   0.0000   0.0000   0.0000   0.0000   0.0000   0.0000

          k = 0.5000 0.1925 0.0000     band energies (ev):

   -17.0296 -16.9526 -14.9769 -14.9137  -9.5471  -9.5255  -4.3013  -3.8277
     0.1153   0.6064   5.9240   6.0344   9.8389  10.5023  11.2653  11.9040

     occupation numbers 
     1.0000   1.0000   1.0000   1.0000   1.0000   1.0000   1.0000   1.0000
     0.0000   0.0000   0.0000   0.0000   0.0000   0.0000   0.0000   0.0000

          k =-0.4167-0.3368 0.0000     band energies (ev):

   -17.0297 -16.9525 -14.9765 -14.9142  -9.5470  -9.5256  -4.3019  -3.8276
     0.1277   0.5939   5.9244   6.0348   9.8400  10.5511  11.2228  11.9006

     occupation numbers 
     1.0000   1.0000   1.0000   1.0000   1.0000   1.0000   1.0000   1.0000
     0.0000   0.0000   0.0000   0.0000   0.0000   0.0000   0.0000   0.0000

          k = 0.5000-0.1925 0.0000     band energies (ev):

   -17.0296 -16.9526 -14.9769 -14.9137  -9.5471  -9.5255  -4.3013  -3.8277
     0.1152   0.6063   5.9241   6.0344   9.8365  10.5161  11.2652  11.8890

     occupation numbers 
     1.0000   1.0000   1.0000   1.0000   1.0000   1.0000   1.0000   1.0000
     0.0000   0.0000   0.0000   0.0000   0.0000   0.0000   0.0000   0.0000

          k =-0.1667 0.2887 0.0000     band energies (ev):

   -19.8542 -19.7526 -10.3536 -10.3273  -9.0383  -9.0211  -7.1868  -6.4349
     4.3963   4.6382   5.8738   6.4947   7.3404   7.6777   7.7253   8.3565

     occupation numbers 
     1.0000   1.0000   1.0000   1.0000   1.0000   1.0000   1.0000   1.0000
     0.0000   0.0000   0.0000   0.0000   0.0000   0.0000   0.0000   0.0000

          k = 0.3333-0.0000 0.0000     band energies (ev):

   -19.8541 -19.7527 -10.3595 -10.3197  -9.0437  -9.0175  -7.1845  -6.4376
     4.3377   4.7040   5.8775   6.4919   7.5697   7.6837   7.9597   9.1213

     occupation numbers 
     1.0000   1.0000   1.0000   1.0000   1.0000   1.0000   1.0000   1.0000
     0.0000   0.0000   0.0000   0.0000   0.0000   0.0000   0.0000   0.0000

          k =-0.1667 0.3849 0.0000     band energies (ev):

   -18.7737 -18.6797 -12.0143 -11.9731 -10.0534 -10.0274  -5.9477  -5.2446
     2.5000   2.8135   7.3649   7.8571   8.0396   8.0915  10.4535  10.6612

     occupation numbers 
     1.0000   1.0000   1.0000   1.0000   1.0000   1.0000   1.0000   1.0000
     0.0000   0.0000   0.0000   0.0000   0.0000   0.0000   0.0000   0.0000

          k =-0.2500 0.3368 0.0000     band energies (ev):

   -18.7735 -18.6798 -12.0140 -11.9728 -10.0542 -10.0274  -5.9440  -5.2492
     2.5007   2.8157   7.3447   7.9175   7.9784   8.1087  10.4443  10.5994

     occupation numbers 
     1.0000   1.0000   1.0000   1.0000   1.0000   1.0000   1.0000   1.0000
     0.0000   0.0000   0.0000   0.0000   0.0000   0.0000   0.0000   0.0000

          k = 0.4167 0.0481 0.0000     band energies (ev):

   -18.7733 -18.6800 -12.0180 -11.9681 -10.0572 -10.0253  -5.9406  -5.2530
     2.4419   2.8808   7.3657   7.8430   8.0303   8.1028  10.5159  10.6324

     occupation numbers 
     1.0000   1.0000   1.0000   1.0000   1.0000   1.0000   1.0000   1.0000
     0.0000   0.0000   0.0000   0.0000   0.0000   0.0000   0.0000   0.0000

          k =-0.2500-0.3368 0.0000     band energies (ev):

   -18.7736 -18.6798 -12.0140 -11.9728 -10.0543 -10.0275  -5.9441  -5.2492
     2.4992   2.8157   7.3333   7.9081   7.9629   8.1009   9.1218  10.5215

     occupation numbers 
     1.0000   1.0000   1.0000   1.0000   1.0000   1.0000   1.0000   1.0000
     0.0000   0.0000   0.0000   0.0000   0.0000   0.0000   0.0000   0.0000

          k = 0.4167-0.0481 0.0000     band energies (ev):

   -18.7734 -18.6800 -12.0180 -11.9681 -10.0572 -10.0253  -5.9407  -5.2530
     2.4411   2.8804   7.3335   7.8422   8.0172   8.1040   9.1399  10.5194

     occupation numbers 
     1.0000   1.0000   1.0000   1.0000   1.0000   1.0000   1.0000   1.0000
     0.0000   0.0000   0.0000   0.0000   0.0000   0.0000   0.0000   0.0000

          k =-0.1667 0.4811 0.0000     band energies (ev):

   -17.4353 -17.3500 -13.8544 -13.7978 -10.6156 -10.5840  -4.5406  -3.9047
     0.6219   1.0468   7.7279   7.8359   9.2442   9.8643  11.8535  12.5317

     occupation numbers 
     1.0000   1.0000   1.0000   1.0000   1.0000   1.0000   1.0000   1.0000
     0.0000   0.0000   0.0000   0.0000   0.0000   0.0000   0.0000   0.0000

          k =-0.3333 0.3849 0.0000     band energies (ev):

   -17.4344 -17.3509 -13.8539 -13.7976 -10.6165 -10.5841  -4.5177  -3.9348
     0.6404   1.0375   7.7037   7.8665   9.2244   9.8250  10.2521  11.5754

     occupation numbers 
     1.0000   1.0000   1.0000   1.0000   1.0000   1.0000   1.0000   1.0000
     0.0000   0.0000   0.0000   0.0000   0.0000   0.0000   0.0000   0.0000

          k = 0.5000 0.0962 0.0000     band energies (ev):

   -17.4341 -17.3512 -13.8559 -13.7955 -10.6175 -10.5834  -4.5144  -3.9377
     0.5945   1.0861   7.7024   7.8586   9.2318   9.7656  10.3727  11.7198

     occupation numbers 
     1.0000   1.0000   1.0000   1.0000   1.0000   1.0000   1.0000   1.0000
     0.0000   0.0000   0.0000   0.0000   0.0000   0.0000   0.0000   0.0000

          k =-0.3333-0.3849 0.0000     band energies (ev):

   -17.4344 -17.3509 -13.8539 -13.7976 -10.6165 -10.5841  -4.5177  -3.9348
     0.6403   1.0374   7.7037   7.8662   9.2253   9.8227  10.2492  11.8382

     occupation numbers 
     1.0000   1.0000   1.0000   1.0000   1.0000   1.0000   1.0000   1.0000
     0.0000   0.0000   0.0000   0.0000   0.0000   0.0000   0.0000   0.0000

          k = 0.5000-0.0962 0.0000     band energies (ev):

   -17.4341 -17.3512 -13.8559 -13.7955 -10.6175 -10.5834  -4.5144  -3.9377
     0.5945   1.0861   7.7026   7.8588   9.2274   9.7572  10.3928  11.8087

     occupation numbers 
     1.0000   1.0000   1.0000   1.0000   1.0000   1.0000   1.0000   1.0000
     0.0000   0.0000   0.0000   0.0000   0.0000   0.0000   0.0000   0.0000

          k =-0.4167 0.4330 0.0000     band energies (ev):

   -16.2343 -16.1810 -15.2207 -15.1761 -10.7975 -10.7632  -3.5806  -3.2002
    -0.3669   0.0518   7.6330   7.7950  10.4607  10.9595  11.3797  11.6362

     occupation numbers 
     1.0000   1.0000   1.0000   1.0000   1.0000   1.0000   0.9996   0.0000
     0.0000   0.0000   0.0000   0.0000   0.0000   0.0000   0.0000   0.0000

          k = 0.5833 0.1443 0.0000     band energies (ev):

   -16.2343 -16.1810 -15.2207 -15.1760 -10.7975 -10.7632  -3.5806  -3.2002
    -0.3669   0.0519   7.6327   7.7950  10.3859  10.9727  11.3812  11.4725

     occupation numbers 
     1.0000   1.0000   1.0000   1.0000   1.0000   1.0000   1.0004   0.0000
     0.0000   0.0000   0.0000   0.0000   0.0000   0.0000   0.0000   0.0000

          k =-0.2500 0.4330 0.0000     band energies (ev):

   -17.5783 -17.4929 -13.0193 -12.9821 -11.4559 -11.4287  -4.6158  -3.9827
     0.9265   1.2439   8.9768   9.4970   9.9317  10.0769  10.2827  10.4480

     occupation numbers 
     1.0000   1.0000   1.0000   1.0000   1.0000   1.0000   1.0000   1.0000
     0.0000   0.0000   0.0000   0.0000   0.0000   0.0000   0.0000   0.0000

          k = 0.5000 0.0000 0.0000     band energies (ev):

   -17.5776 -17.4934 -13.0282 -12.9719 -11.4635 -11.4226  -4.6054  -3.9943
     0.8489   1.3305   8.9593   9.4063   9.9314  10.1838  10.2142  10.4893

     occupation numbers 
     1.0000   1.0000   1.0000   1.0000   1.0000   1.0000   1.0000   1.0000
     0.0000   0.0000   0.0000   0.0000   0.0000   0.0000   0.0000   0.0000

          k =-0.2500 0.5292 0.0000     band energies (ev):

   -16.2008 -16.1239 -14.3878 -14.3352 -12.1433 -12.1059  -3.2546  -2.6807
    -0.5626  -0.2004   9.4467   9.8135  10.1620  10.7710  10.7897  11.7171

     occupation numbers 
     1.0000   1.0000   1.0000   1.0000   1.0000   1.0000   0.0000   0.0000
     0.0000   0.0000   0.0000   0.0000   0.0000   0.0000   0.0000   0.0000

          k =-0.3333 0.4811 0.0000     band energies (ev):

   -16.1985 -16.1266 -14.3866 -14.3356 -12.1445 -12.1055  -3.2161  -2.7352
    -0.5488  -0.1946   9.4637   9.8458  10.1087  10.5855  10.9443  11.6884

     occupation numbers 
     1.0000   1.0000   1.0000   1.0000   1.0000   1.0000   0.0000   0.0000
     0.0000   0.0000   0.0000   0.0000   0.0000   0.0000   0.0000   0.0000

          k = 0.5833 0.0481 0.0000     band energies (ev):

   -16.1978 -16.1272 -14.3922 -14.3296 -12.1470 -12.1035  -3.2089  -2.7384
    -0.6189  -0.1254   9.4428   9.8489  10.1183  10.6092  10.9940  11.6768

     occupation numbers 
     1.0000   1.0000   1.0000   1.0000   1.0000   1.0000   0.0000   0.0000
     0.0000   0.0000   0.0000   0.0000   0.0000   0.0000   0.0000   0.0000

          k =-0.3333-0.4811 0.0000     band energies (ev):

   -16.1984 -16.1266 -14.3866 -14.3356 -12.1445 -12.1055  -3.2161  -2.7352
    -0.5488  -0.1946   9.4598   9.8454  10.1090  10.5846  10.9443  11.6806

     occupation numbers 
     1.0000   1.0000   1.0000   1.0000   1.0000   1.0000   0.0000   0.0000
     0.0000   0.0000   0.0000   0.0000   0.0000   0.0000   0.0000   0.0000

          k = 0.5833-0.0481 0.0000     band energies (ev):

   -16.1977 -16.1272 -14.3922 -14.3296 -12.1470 -12.1034  -3.2089  -2.7384
    -0.6189  -0.1253   9.4236   9.8425  10.1189  10.6094  10.9606  11.6590

     occupation numbers 
     1.0000   1.0000   1.0000   1.0000   1.0000   1.0000   0.0000   0.0000
     0.0000   0.0000   0.0000   0.0000   0.0000   0.0000   0.0000   0.0000

 ------ SPIN DOWN ----------


          k = 0.0000 0.0000 0.0000     band energies (ev):

   -25.4193 -25.3250 -12.6464 -11.9635  -9.8687  -9.8642  -9.8628  -9.8617
     2.0982   2.1002   2.1059   2.1078   2.1171   3.1320   5.4422   5.4726

     occupation numbers 
     1.0000   1.0000   1.0000   1.0000   1.0000   1.0000   1.0000   1.0000
     0.0000   0.0000   0.0000   0.0000   0.0000   0.0000   0.0000   0.0000

          k = 0.0000 0.0962 0.0000     band energies (ev):

   -25.2616 -25.1683 -12.4555 -11.7783 -10.4540 -10.4435 -10.1696 -10.1680
     2.2053   2.2241   2.6612   2.7528   2.7559   3.3647   4.9387   4.9938

     occupation numbers 
     1.0000   1.0000   1.0000   1.0000   1.0000   1.0000   1.0000   1.0000
     0.0000   0.0000   0.0000   0.0000   0.0000   0.0000   0.0000   0.0000

          k = 0.0000 0.1925 0.0000     band energies (ev):

   -24.7904 -24.7000 -11.9505 -11.9305 -11.8920 -11.2296 -10.8967 -10.8949
     2.2318   2.2991   2.9712   3.5643   3.6827   4.0185   4.4878   4.4900

     occupation numbers 
     1.0000   1.0000   1.0000   1.0000   1.0000   1.0000   1.0000   1.0000
     0.0000   0.0000   0.0000   0.0000   0.0000   0.0000   0.0000   0.0000

          k = 0.0000 0.2887 0.0000     band energies (ev):

   -24.0120 -23.9262 -13.8976 -13.8679 -11.7184 -11.7166 -10.9756 -10.3395
     1.6352   1.8571   2.1486   2.1704   3.9780   5.0983   6.8993   6.8998

     occupation numbers 
     1.0000   1.0000   1.0000   1.0000   1.0000   1.0000   1.0000   1.0000
     0.0000   0.0000   0.0000   0.0000   0.0000   0.0000   0.0000   0.0000

          k = 0.0000 0.3849 0.0000     band energies (ev):

   -22.9398 -22.8601 -15.9661 -15.9258 -12.4115 -12.4098  -9.7604  -9.1653
    -0.5165  -0.1776   1.9482   1.9493   5.3653   6.5771   9.5609   9.5657

     occupation numbers 
     1.0000   1.0000   1.0000   1.0000   1.0000   1.0000   1.0000   1.0000
     0.0000   0.0000   0.0000   0.0000   0.0000   0.0000   0.0000   0.0000

          k = 0.0000 0.4811 0.0000     band energies (ev):

   -21.6084 -21.5359 -17.9486 -17.8985 -12.8614 -12.8599  -8.4161  -7.8800
    -2.5082  -2.0570   1.7720   1.7842   7.0784   8.3622  10.3773  11.8846

     occupation numbers 
     1.0000   1.0000   1.0000   1.0000   1.0000   1.0000   1.0000   1.0000
     0.0000   0.0000   0.0000   0.0000   0.0000   0.0000   0.0000   0.0000

          k = 0.0000-0.5774 0.0000     band energies (ev):

   -20.4374 -20.3683 -19.3447 -19.2899 -13.0161 -13.0139  -7.6403  -7.1534
    -3.5147  -2.9941   1.7079   1.7217   8.8616   8.9353  10.3366  10.5457

     occupation numbers 
     1.0000   1.0000   1.0000   1.0000   1.0000   1.0000   1.0000   1.0000
     0.0000   0.0000   0.0000   0.0000   0.0000   0.0000   0.0000   0.0000

          k = 0.0833 0.1443 0.0000     band energies (ev):

   -24.9472 -24.8558 -12.0792 -11.4122 -11.4007 -11.3890 -10.7792 -10.7738
     2.3943   2.5613   2.8483   3.6323   3.6348   3.8521   4.0073   4.1104

     occupation numbers 
     1.0000   1.0000   1.0000   1.0000   1.0000   1.0000   1.0000   1.0000
     0.0000   0.0000   0.0000   0.0000   0.0000   0.0000   0.0000   0.0000

          k = 0.0833 0.2406 0.0000     band energies (ev):

   -24.3224 -24.2348 -12.9843 -12.9626 -11.6946 -11.6857 -11.3372 -10.6906
     2.4032   2.5611   2.7446   2.8223   3.6082   4.6613   5.1410   5.1546

     occupation numbers 
     1.0000   1.0000   1.0000   1.0000   1.0000   1.0000   1.0000   1.0000
     0.0000   0.0000   0.0000   0.0000   0.0000   0.0000   0.0000   0.0000

          k = 0.0833 0.3368 0.0000     band energies (ev):

   -23.3969 -23.3148 -14.9180 -14.8846 -12.5282 -12.5160 -10.2644  -9.6513
     0.4155   0.6698   2.6835   2.7089   4.7671   5.8944   7.2320   7.3033

     occupation numbers 
     1.0000   1.0000   1.0000   1.0000   1.0000   1.0000   1.0000   1.0000
     0.0000   0.0000   0.0000   0.0000   0.0000   0.0000   0.0000   0.0000

          k = 0.0833 0.4330 0.0000     band energies (ev):

   -22.1914 -22.1161 -16.9145 -16.8703 -13.1320 -13.1181  -8.9493  -8.3857
    -1.6462  -1.2821   2.4934   2.5218   6.3133   7.5579   9.2343   9.5494

     occupation numbers 
     1.0000   1.0000   1.0000   1.0000   1.0000   1.0000   1.0000   1.0000
     0.0000   0.0000   0.0000   0.0000   0.0000   0.0000   0.0000   0.0000

          k = 0.0833 0.5292 0.0000     band energies (ev):

   -20.7915 -20.7225 -18.7403 -18.6872 -13.4457 -13.4313  -7.7273  -7.2266
    -3.2855  -2.8206   2.3747   2.4015   8.0522   9.2058   9.4254   9.9789

     occupation numbers 
     1.0000   1.0000   1.0000   1.0000   1.0000   1.0000   1.0000   1.0000
     0.0000   0.0000   0.0000   0.0000   0.0000   0.0000   0.0000   0.0000

          k = 0.1667 0.2887 0.0000     band energies (ev):

   -23.5503 -23.4675 -14.2456 -14.2240 -12.9234 -12.9097 -10.4340  -9.8171
     0.8040   0.9989   3.8694   4.0311   4.6940   5.3586   5.3875   5.7326

     occupation numbers 
     1.0000   1.0000   1.0000   1.0000   1.0000   1.0000   1.0000   1.0000
     0.0000   0.0000   0.0000   0.0000   0.0000   0.0000   0.0000   0.0000

          k = 0.1667 0.3849 0.0000     band energies (ev):

   -22.4899 -22.4132 -15.8651 -15.8319 -13.9117 -13.8913  -9.2337  -8.6585
    -1.0221  -0.7715   4.2522   4.3196   5.9167   6.8683   6.9090   7.1502

     occupation numbers 
     1.0000   1.0000   1.0000   1.0000   1.0000   1.0000   1.0000   1.0000
     0.0000   0.0000   0.0000   0.0000   0.0000   0.0000   0.0000   0.0000

          k = 0.1667 0.4811 0.0000     band energies (ev):

   -21.1799 -21.1102 -17.6554 -17.6097 -14.4661 -14.4410  -7.8824  -7.3625
    -2.8143  -2.4790   4.1084   4.1893   7.4428   8.6007   8.6820   9.0772

     occupation numbers 
     1.0000   1.0000   1.0000   1.0000   1.0000   1.0000   1.0000   1.0000
     0.0000   0.0000   0.0000   0.0000   0.0000   0.0000   0.0000   0.0000

          k = 0.1667 0.5774 0.0000     band energies (ev):

   -20.0361 -19.9699 -18.9803 -18.9294 -14.6448 -14.6185  -7.0588  -6.5808
    -3.7985  -3.4054   4.0385   4.1252   8.1104   8.6202   9.7775   9.8948

     occupation numbers 
     1.0000   1.0000   1.0000   1.0000   1.0000   1.0000   1.0000   1.0000
     1.0000   0.0000   0.0000   0.0000   0.0000   0.0000   0.0000   0.0000

          k = 0.2500 0.4330 0.0000     band energies (ev):

   -21.3190 -21.2494 -16.8644 -16.8340 -15.2580 -15.2366  -7.9478  -7.4316
    -2.5679  -2.3094   6.2185   6.4064   6.5590   6.6644   7.4474   8.3621

     occupation numbers 
     1.0000   1.0000   1.0000   1.0000   1.0000   1.0000   1.0000   1.0000
     0.0000   0.0000   0.0000   0.0000   0.0000   0.0000   0.0000   0.0000

          k = 0.2500 0.5292 0.0000     band energies (ev):

   -19.9772 -19.9144 -18.1914 -18.1492 -15.9293 -15.8999  -6.6423  -6.1725
    -4.0091  -3.7164   6.1907   6.3831   7.3221   7.9658   8.6234   8.6996

     occupation numbers 
     1.0000   1.0000   1.0000   1.0000   1.0000   1.0000   1.0000   1.0000
     1.0000   1.0000   0.0000   0.0000   0.0000   0.0000   0.0000   0.0000

          k = 0.3333 0.5774 0.0000     band energies (ev):

   -18.8376 -18.8297 -18.7889 -18.7797 -16.7184 -16.6903  -5.3472  -5.2848
    -4.9687  -4.8986   6.8310   7.5955   7.6838   8.2079   8.2308   8.5111

     occupation numbers 
     1.0000   1.0000   1.0000   1.0000   1.0000   1.0000   1.0000   1.0000
     1.0000   1.0000   0.0000   0.0000   0.0000   0.0000   0.0000   0.0000

          k =-0.0833 0.0481 0.0000     band energies (ev):

   -25.2615 -25.1683 -12.4562 -11.7785 -10.4525 -10.4427 -10.1731 -10.1669
     2.1014   2.2189   2.3797   2.7496   2.7621   3.3600   4.9257   5.0068

     occupation numbers 
     1.0000   1.0000   1.0000   1.0000   1.0000   1.0000   1.0000   1.0000
     0.0000   0.0000   0.0000   0.0000   0.0000   0.0000   0.0000   0.0000

          k = 0.0833 0.0481 0.0000     band energies (ev):

   -25.2615 -25.1683 -12.4562 -11.7785 -10.4525 -10.4427 -10.1731 -10.1669
     2.1061   2.2188   2.3822   2.7496   2.7621   3.3609   4.9252   5.0067

     occupation numbers 
     1.0000   1.0000   1.0000   1.0000   1.0000   1.0000   1.0000   1.0000
     0.0000   0.0000   0.0000   0.0000   0.0000   0.0000   0.0000   0.0000

          k =-0.1667 0.0962 0.0000     band energies (ev):

   -24.7904 -24.7000 -11.9495 -11.9293 -11.8919 -11.2303 -10.9008 -10.8928
     2.2164   2.3080   2.9710   3.5436   3.7034   4.0210   4.4852   4.4958

     occupation numbers 
     1.0000   1.0000   1.0000   1.0000   1.0000   1.0000   1.0000   1.0000
     0.0000   0.0000   0.0000   0.0000   0.0000   0.0000   0.0000   0.0000

          k = 0.1667 0.0962 0.0000     band energies (ev):

   -24.7904 -24.7000 -11.9495 -11.9293 -11.8919 -11.2304 -10.9008 -10.8928
     2.2195   2.3099   2.9787   3.5440   3.7032   4.0209   4.4849   4.4958

     occupation numbers 
     1.0000   1.0000   1.0000   1.0000   1.0000   1.0000   1.0000   1.0000
     0.0000   0.0000   0.0000   0.0000   0.0000   0.0000   0.0000   0.0000

          k =-0.2500 0.1443 0.0000     band energies (ev):

   -24.0119 -23.9263 -13.8975 -13.8668 -11.7231 -11.7137 -10.9736 -10.3420
     1.6205   1.8706   2.1227   2.1956   3.9756   5.0977   6.8937   6.9028

     occupation numbers 
     1.0000   1.0000   1.0000   1.0000   1.0000   1.0000   1.0000   1.0000
     0.0000   0.0000   0.0000   0.0000   0.0000   0.0000   0.0000   0.0000

          k = 0.2500 0.1443 0.0000     band energies (ev):

   -24.0119 -23.9263 -13.8975 -13.8668 -11.7231 -11.7137 -10.9735 -10.3419
     1.6208   1.8706   2.1233   2.1957   3.9821   5.0826   6.8919   6.9040

     occupation numbers 
     1.0000   1.0000   1.0000   1.0000   1.0000   1.0000   1.0000   1.0000
     0.0000   0.0000   0.0000   0.0000   0.0000   0.0000   0.0000   0.0000

          k =-0.3333 0.1925 0.0000     band energies (ev):

   -22.9394 -22.8604 -15.9661 -15.9250 -12.4164 -12.4063  -9.7535  -9.1735
    -0.5158  -0.1751   1.9091   1.9858   5.3613   6.5756   9.5544   9.5632

     occupation numbers 
     1.0000   1.0000   1.0000   1.0000   1.0000   1.0000   1.0000   1.0000
     0.0000   0.0000   0.0000   0.0000   0.0000   0.0000   0.0000   0.0000

          k = 0.3333 0.1925 0.0000     band energies (ev):

   -22.9395 -22.8604 -15.9660 -15.9249 -12.4164 -12.4063  -9.7537  -9.1735
    -0.5164  -0.1758   1.9091   1.9889   5.3548   6.5960   7.6960   9.5631

     occupation numbers 
     1.0000   1.0000   1.0000   1.0000   1.0000   1.0000   1.0000   1.0000
     0.0000   0.0000   0.0000   0.0000   0.0000   0.0000   0.0000   0.0000

          k =-0.4167 0.2406 0.0000     band energies (ev):

   -21.6073 -21.5370 -17.9482 -17.8981 -12.8667 -12.8559  -8.3897  -7.9124
    -2.4777  -2.0810   1.7376   1.8185   7.0723   8.3387   9.1860  10.3724

     occupation numbers 
     1.0000   1.0000   1.0000   1.0000   1.0000   1.0000   1.0000   1.0000
     0.0000   0.0000   0.0000   0.0000   0.0000   0.0000   0.0000   0.0000

          k = 0.4167 0.2406 0.0000     band energies (ev):

   -21.6073 -21.5369 -17.9482 -17.8980 -12.8666 -12.8559  -8.3897  -7.9124
    -2.4772  -2.0805   1.7382   1.8190   7.0739   8.3958  10.3363  11.7125

     occupation numbers 
     1.0000   1.0000   1.0000   1.0000   1.0000   1.0000   1.0000   1.0000
     0.0000   0.0000   0.0000   0.0000   0.0000   0.0000   0.0000   0.0000

          k = 0.5000-0.2887 0.0000     band energies (ev):

   -20.4264 -20.3808 -19.3348 -19.2975 -13.0211 -13.0102  -7.5660  -7.2458
    -3.4336  -3.0552   1.6738   1.7564   8.8698   8.9280  10.1881  10.6738

     occupation numbers 
     1.0000   1.0000   1.0000   1.0000   1.0000   1.0000   1.0000   1.0000
     0.0000   0.0000   0.0000   0.0000   0.0000   0.0000   0.0000   0.0000

          k =-0.5000-0.2887 0.0000     band energies (ev):

   -20.4264 -20.3808 -19.3349 -19.2975 -13.0211 -13.0101  -7.5660  -7.2458
    -3.4336  -3.0551   1.6729   1.7566   8.8637   8.9296  10.2064  10.8283

     occupation numbers 
     1.0000   1.0000   1.0000   1.0000   1.0000   1.0000   1.0000   1.0000
     0.0000   0.0000   0.0000   0.0000   0.0000   0.0000   0.0000   0.0000

          k =-0.0833 0.1443 0.0000     band energies (ev):

   -24.9472 -24.8558 -12.0790 -11.4122 -11.4006 -11.3890 -10.7792 -10.7738
     2.3950   2.5621   2.8448   3.6321   3.6348   3.9060   4.0074   4.1104

     occupation numbers 
     1.0000   1.0000   1.0000   1.0000   1.0000   1.0000   1.0000   1.0000
     0.0000   0.0000   0.0000   0.0000   0.0000   0.0000   0.0000   0.0000

          k = 0.1667-0.0000 0.0000     band energies (ev):

   -24.9471 -24.8558 -12.0787 -11.4119 -11.4030 -11.3851 -10.7824 -10.7730
     2.3982   2.5521   2.8510   3.6174   3.6521   3.8146   3.9827   4.1355

     occupation numbers 
     1.0000   1.0000   1.0000   1.0000   1.0000   1.0000   1.0000   1.0000
     0.0000   0.0000   0.0000   0.0000   0.0000   0.0000   0.0000   0.0000

          k =-0.0833 0.2406 0.0000     band energies (ev):

   -24.3224 -24.2348 -12.9844 -12.9626 -11.6947 -11.6857 -11.3372 -10.6907
     2.4034   2.5611   2.7444   2.8246   3.6178   4.6257   5.1386   5.1536

     occupation numbers 
     1.0000   1.0000   1.0000   1.0000   1.0000   1.0000   1.0000   1.0000
     0.0000   0.0000   0.0000   0.0000   0.0000   0.0000   0.0000   0.0000

          k =-0.1667 0.1925 0.0000     band energies (ev):

   -24.3223 -24.2349 -12.9838 -12.9621 -11.6964 -11.6851 -11.3366 -10.6914
     2.3951   2.5642   2.7331   2.8392   3.6061   4.6594   5.1434   5.1527

     occupation numbers 
     1.0000   1.0000   1.0000   1.0000   1.0000   1.0000   1.0000   1.0000
     0.0000   0.0000   0.0000   0.0000   0.0000   0.0000   0.0000   0.0000

          k = 0.2500 0.0481 0.0000     band energies (ev):

   -24.3223 -24.2349 -12.9857 -12.9592 -11.6978 -11.6847 -11.3360 -10.6921
     2.3692   2.6005   2.7289   2.8292   3.6076   4.6580   5.1301   5.1681

     occupation numbers 
     1.0000   1.0000   1.0000   1.0000   1.0000   1.0000   1.0000   1.0000
     0.0000   0.0000   0.0000   0.0000   0.0000   0.0000   0.0000   0.0000

          k =-0.1667-0.1925 0.0000     band energies (ev):

   -24.3223 -24.2348 -12.9838 -12.9621 -11.6964 -11.6851 -11.3366 -10.6914
     2.3952   2.5641   2.7318   2.8394   3.6006   4.6603   5.1429   5.1535

     occupation numbers 
     1.0000   1.0000   1.0000   1.0000   1.0000   1.0000   1.0000   1.0000
     0.0000   0.0000   0.0000   0.0000   0.0000   0.0000   0.0000   0.0000

          k = 0.2500-0.0481 0.0000     band energies (ev):

   -24.3223 -24.2349 -12.9857 -12.9592 -11.6978 -11.6847 -11.3359 -10.6922
     2.3695   2.6007   2.7302   2.8287   3.6093   4.6505   5.1317   5.1660

     occupation numbers 
     1.0000   1.0000   1.0000   1.0000   1.0000   1.0000   1.0000   1.0000
     0.0000   0.0000   0.0000   0.0000   0.0000   0.0000   0.0000   0.0000

          k =-0.0833 0.3368 0.0000     band energies (ev):

   -23.3968 -23.3147 -14.9179 -14.8845 -12.5282 -12.5160 -10.2644  -9.6513
     0.4155   0.6697   2.6860   2.7092   4.7717   5.9350   7.2275   7.3038

     occupation numbers 
     1.0000   1.0000   1.0000   1.0000   1.0000   1.0000   1.0000   1.0000
     0.0000   0.0000   0.0000   0.0000   0.0000   0.0000   0.0000   0.0000

          k =-0.2500 0.2406 0.0000     band energies (ev):

   -23.3967 -23.3149 -14.9176 -14.8840 -12.5301 -12.5153 -10.2615  -9.6548
     0.4128   0.6735   2.6544   2.7399   4.7725   5.9241   7.2305   7.2912

     occupation numbers 
     1.0000   1.0000   1.0000   1.0000   1.0000   1.0000   1.0000   1.0000
     0.0000   0.0000   0.0000   0.0000   0.0000   0.0000   0.0000   0.0000

          k = 0.3333 0.0962 0.0000     band energies (ev):

   -23.3966 -23.3149 -14.9187 -14.8825 -12.5307 -12.5152 -10.2604  -9.6560
     0.3881   0.7010   2.6554   2.7357   4.7682   5.9262   7.2289   7.3034

     occupation numbers 
     1.0000   1.0000   1.0000   1.0000   1.0000   1.0000   1.0000   1.0000
     0.0000   0.0000   0.0000   0.0000   0.0000   0.0000   0.0000   0.0000

          k =-0.2500-0.2406 0.0000     band energies (ev):

   -23.3967 -23.3149 -14.9176 -14.8840 -12.5301 -12.5153 -10.2614  -9.6548
     0.4129   0.6736   2.6541   2.7399   4.7653   5.9257   7.2349   7.2987

     occupation numbers 
     1.0000   1.0000   1.0000   1.0000   1.0000   1.0000   1.0000   1.0000
     0.0000   0.0000   0.0000   0.0000   0.0000   0.0000   0.0000   0.0000

          k = 0.3333-0.0962 0.0000     band energies (ev):

   -23.3966 -23.3149 -14.9187 -14.8825 -12.5307 -12.5152 -10.2604  -9.6560
     0.3882   0.7012   2.6553   2.7360   4.7700   5.9319   7.2302   7.3106

     occupation numbers 
     1.0000   1.0000   1.0000   1.0000   1.0000   1.0000   1.0000   1.0000
     0.0000   0.0000   0.0000   0.0000   0.0000   0.0000   0.0000   0.0000

          k =-0.0833 0.4330 0.0000     band energies (ev):

   -22.1914 -22.1160 -16.9145 -16.8702 -13.1319 -13.1181  -8.9493  -8.3857
    -1.6463  -1.2821   2.4983   2.5218   6.3134   7.5282   9.2408   9.5425

     occupation numbers 
     1.0000   1.0000   1.0000   1.0000   1.0000   1.0000   1.0000   1.0000
     0.0000   0.0000   0.0000   0.0000   0.0000   0.0000   0.0000   0.0000

          k =-0.3333 0.2887 0.0000     band energies (ev):

   -22.1910 -22.1164 -16.9141 -16.8696 -13.1340 -13.1174  -8.9374  -8.4003
    -1.6332  -1.2905   2.4651   2.5556   6.3158   7.5275   9.2400   9.5531

     occupation numbers 
     1.0000   1.0000   1.0000   1.0000   1.0000   1.0000   1.0000   1.0000
     0.0000   0.0000   0.0000   0.0000   0.0000   0.0000   0.0000   0.0000

          k = 0.4167 0.1443 0.0000     band energies (ev):

   -22.1909 -22.1166 -16.9148 -16.8689 -13.1341 -13.1174  -8.9362  -8.4015
    -1.6524  -1.2700   2.4651   2.5498   6.3110   7.5489   9.2433   9.5511

     occupation numbers 
     1.0000   1.0000   1.0000   1.0000   1.0000   1.0000   1.0000   1.0000
     0.0000   0.0000   0.0000   0.0000   0.0000   0.0000   0.0000   0.0000

          k =-0.3333-0.2887 0.0000     band energies (ev):

   -22.1909 -22.1165 -16.9141 -16.8696 -13.1339 -13.1174  -8.9373  -8.4003
    -1.6334  -1.2904   2.4651   2.5558   6.3091   7.5237   9.2413   9.5642

     occupation numbers 
     1.0000   1.0000   1.0000   1.0000   1.0000   1.0000   1.0000   1.0000
     0.0000   0.0000   0.0000   0.0000   0.0000   0.0000   0.0000   0.0000

          k = 0.4167-0.1443 0.0000     band energies (ev):

   -22.1909 -22.1166 -16.9149 -16.8689 -13.1342 -13.1174  -8.9363  -8.4015
    -1.6538  -1.2708   2.4651   2.5497   6.3086   7.5173   8.4229   9.2287

     occupation numbers 
     1.0000   1.0000   1.0000   1.0000   1.0000   1.0000   1.0000   1.0000
     0.0000   0.0000   0.0000   0.0000   0.0000   0.0000   0.0000   0.0000

          k =-0.0833 0.5292 0.0000     band energies (ev):

   -20.7915 -20.7226 -18.7403 -18.6872 -13.4456 -13.4314  -7.7273  -7.2266
    -3.2851  -2.8207   2.3750   2.4015   8.0537   9.3925   9.4725  10.6752

     occupation numbers 
     1.0000   1.0000   1.0000   1.0000   1.0000   1.0000   1.0000   1.0000
     0.0000   0.0000   0.0000   0.0000   0.0000   0.0000   0.0000   0.0000

          k =-0.4167 0.3368 0.0000     band energies (ev):

   -20.7885 -20.7260 -18.7384 -18.6884 -13.4478 -13.4306  -7.6763  -7.2904
    -3.2301  -2.8609   2.3400   2.4292   8.0453   9.0885   9.5275   9.8961

     occupation numbers 
     1.0000   1.0000   1.0000   1.0000   1.0000   1.0000   1.0000   1.0000
     0.0000   0.0000   0.0000   0.0000   0.0000   0.0000   0.0000   0.0000

          k = 0.5000 0.1925 0.0000     band energies (ev):

   -20.7884 -20.7261 -18.7389 -18.6880 -13.4479 -13.4305  -7.6759  -7.2905
    -3.2410  -2.8499   2.3399   2.4288   8.0496   9.0384   9.6077   9.9166

     occupation numbers 
     1.0000   1.0000   1.0000   1.0000   1.0000   1.0000   1.0000   1.0000
     0.0000   0.0000   0.0000   0.0000   0.0000   0.0000   0.0000   0.0000

          k =-0.4167-0.3368 0.0000     band energies (ev):

   -20.7885 -20.7259 -18.7383 -18.6881 -13.4478 -13.4303  -7.6763  -7.2904
    -3.2300  -2.8610   2.3401   2.4367   8.0431   9.0933   9.5415   9.8989

     occupation numbers 
     1.0000   1.0000   1.0000   1.0000   1.0000   1.0000   1.0000   1.0000
     0.0000   0.0000   0.0000   0.0000   0.0000   0.0000   0.0000   0.0000

          k = 0.5000-0.1925 0.0000     band energies (ev):

   -20.7884 -20.7261 -18.7388 -18.6880 -13.4479 -13.4305  -7.6759  -7.2905
    -3.2410  -2.8499   2.3400   2.4288   8.0504   9.0485   9.6203   9.9186

     occupation numbers 
     1.0000   1.0000   1.0000   1.0000   1.0000   1.0000   1.0000   1.0000
     0.0000   0.0000   0.0000   0.0000   0.0000   0.0000   0.0000   0.0000

          k =-0.1667 0.2887 0.0000     band energies (ev):

   -23.5503 -23.4675 -14.2455 -14.2241 -12.9234 -12.9098 -10.4341  -9.8172
     0.8040   0.9989   3.8682   4.0303   4.6963   5.3582   5.3879   5.7183

     occupation numbers 
     1.0000   1.0000   1.0000   1.0000   1.0000   1.0000   1.0000   1.0000
     0.0000   0.0000   0.0000   0.0000   0.0000   0.0000   0.0000   0.0000

          k = 0.3333-0.0000 0.0000     band energies (ev):

   -23.5502 -23.4676 -14.2502 -14.2177 -12.9280 -12.9072 -10.4318  -9.8197
     0.7561   1.0510   3.8677   4.0178   4.6997   5.3443   5.4073   5.6897

     occupation numbers 
     1.0000   1.0000   1.0000   1.0000   1.0000   1.0000   1.0000   1.0000
     0.0000   0.0000   0.0000   0.0000   0.0000   0.0000   0.0000   0.0000

          k =-0.1667 0.3849 0.0000     band energies (ev):

   -22.4899 -22.4132 -15.8651 -15.8319 -13.9117 -13.8913  -9.2337  -8.6585
    -1.0221  -0.7714   4.2524   4.3196   5.9281   6.8674   6.9109   7.1495

     occupation numbers 
     1.0000   1.0000   1.0000   1.0000   1.0000   1.0000   1.0000   1.0000
     0.0000   0.0000   0.0000   0.0000   0.0000   0.0000   0.0000   0.0000

          k =-0.2500 0.3368 0.0000     band energies (ev):
[...]
     0.0000   0.0000   0.0000   0.0000   0.0000   0.0000   0.0000   0.0000

          k =-0.3333 0.2887 0.0000 (  3041 PWs)   bands (ev):

   -16.6703 -16.5561 -11.1497 -11.0797  -7.0946  -7.0679  -4.6394  -3.8743
     2.9523   3.4767   7.4587   7.7669   7.8257   7.9920   8.7581   9.8878

     occupation numbers 
     1.0000   1.0000   1.0000   1.0000   1.0000   1.0000   1.0000   1.0000
     0.0000   0.0000   0.0000   0.0000   0.0000   0.0000   0.0000   0.0000

          k = 0.4167 0.1443 0.0000 (  3041 PWs)   bands (ev):

   -16.6702 -16.5562 -11.1506 -11.0786  -7.0949  -7.0678  -4.6380  -3.8758
     2.9283   3.5039   7.4633   7.7373   7.8419   7.9933   8.7587   9.8851

     occupation numbers 
     1.0000   1.0000   1.0000   1.0000   1.0000   1.0000   1.0000   1.0000
     0.0000   0.0000   0.0000   0.0000   0.0000   0.0000   0.0000   0.0000

          k =-0.3333-0.2887 0.0000 (  3041 PWs)   bands (ev):

   -16.6703 -16.5561 -11.1497 -11.0797  -7.0946  -7.0679  -4.6394  -3.8743
     2.9523   3.4767   7.4587   7.7669   7.8257   7.9920   8.7580   9.8877

     occupation numbers 
     1.0000   1.0000   1.0000   1.0000   1.0000   1.0000   1.0000   1.0000
     0.0000   0.0000   0.0000   0.0000   0.0000   0.0000   0.0000   0.0000

          k = 0.4167-0.1443 0.0000 (  3041 PWs)   bands (ev):

   -16.6702 -16.5562 -11.1506 -11.0786  -7.0949  -7.0678  -4.6380  -3.8758
     2.9283   3.5039   7.4633   7.7373   7.8419   7.9933   8.7587   9.8852

     occupation numbers 
     1.0000   1.0000   1.0000   1.0000   1.0000   1.0000   1.0000   1.0000
     0.0000   0.0000   0.0000   0.0000   0.0000   0.0000   0.0000   0.0000

          k =-0.0833 0.5292 0.0000 (  3043 PWs)   bands (ev):

   -15.1914 -15.0855 -13.0903 -13.0078  -7.4195  -7.3956  -3.3094  -2.5978
     1.0988   1.8067   7.5793   7.6341   9.6730  10.1202  10.9719  11.6880

     occupation numbers 
     1.0000   1.0000   1.0000   1.0000   1.0000   1.0000   1.0000   1.0000
     0.0000   0.0000   0.0000   0.0000   0.0000   0.0000   0.0000   0.0000

          k =-0.4167 0.3368 0.0000 (  3043 PWs)   bands (ev):

   -15.1874 -15.0901 -13.0877 -13.0088  -7.4221  -7.3944  -3.2442  -2.6890
     1.1914   1.7444   7.5389   7.6764   9.6744  10.1229  10.9683  11.6467

     occupation numbers 
     1.0000   1.0000   1.0000   1.0000   1.0000   1.0000   1.0000   1.0000
     0.0000   0.0000   0.0000   0.0000   0.0000   0.0000   0.0000   0.0000

          k = 0.5000 0.1925 0.0000 (  3043 PWs)   bands (ev):

   -15.1872 -15.0903 -13.0883 -13.0082  -7.4222  -7.3943  -3.2436  -2.6891
     1.1776   1.7587   7.5385   7.6753   9.6744  10.1130  10.9719  11.6978

     occupation numbers 
     1.0000   1.0000   1.0000   1.0000   1.0000   1.0000   1.0000   1.0000
     0.0000   0.0000   0.0000   0.0000   0.0000   0.0000   0.0000   0.0000

          k =-0.4167-0.3368 0.0000 (  3043 PWs)   bands (ev):

   -15.1874 -15.0901 -13.0877 -13.0088  -7.4221  -7.3944  -3.2442  -2.6890
     1.1914   1.7444   7.5389   7.6764   9.6744  10.1229  10.9683  11.6467

     occupation numbers 
     1.0000   1.0000   1.0000   1.0000   1.0000   1.0000   1.0000   1.0000
     0.0000   0.0000   0.0000   0.0000   0.0000   0.0000   0.0000   0.0000

          k = 0.5000-0.1925 0.0000 (  3043 PWs)   bands (ev):

   -15.1872 -15.0903 -13.0883 -13.0082  -7.4222  -7.3943  -3.2436  -2.6891
     1.1776   1.7587   7.5385   7.6753   9.6744  10.1130  10.9719  11.6979

     occupation numbers 
     1.0000   1.0000   1.0000   1.0000   1.0000   1.0000   1.0000   1.0000
     0.0000   0.0000   0.0000   0.0000   0.0000   0.0000   0.0000   0.0000

          k =-0.1667 0.2887 0.0000 (  3039 PWs)   bands (ev):

   -18.0929 -17.9664  -8.2794  -8.2456  -6.9323  -6.9098  -6.2360  -5.3718
     5.5635   5.7010   5.9659   5.9963   6.7227   7.8755   8.1205   9.4551

     occupation numbers 
     1.0000   1.0000   1.0000   1.0000   1.0000   1.0000   1.0000   1.0000
     0.0000   0.0000   0.0000   0.0000   0.0000   0.0000   0.0000   0.0000

          k = 0.3333-0.0000 0.0000 (  3039 PWs)   bands (ev):

   -18.0927 -17.9666  -8.2869  -8.2357  -6.9393  -6.9053  -6.2336  -5.3749
     5.5641   5.6316   5.9659   6.0746   6.7226   7.8735   8.1198   9.4093

     occupation numbers 
     1.0000   1.0000   1.0000   1.0000   1.0000   1.0000   1.0000   1.0000
     0.0000   0.0000   0.0000   0.0000   0.0000   0.0000   0.0000   0.0000

          k =-0.1667 0.3849 0.0000 (  3045 PWs)   bands (ev):

   -16.9837 -16.8662 -10.0085  -9.9556  -7.9889  -7.9549  -4.9645  -4.1517
     3.7203   4.0993   7.0897   7.4961   8.2948   9.3975   9.4227   9.6754

     occupation numbers 
     1.0000   1.0000   1.0000   1.0000   1.0000   1.0000   1.0000   1.0000
     0.0000   0.0000   0.0000   0.0000   0.0000   0.0000   0.0000   0.0000

          k =-0.2500 0.3368 0.0000 (  3045 PWs)   bands (ev):

   -16.9836 -16.8664 -10.0081  -9.9551  -7.9897  -7.9549  -4.9606  -4.1569
     3.7215   4.1018   7.0890   7.4999   8.2947   9.4123   9.4222   9.6982

     occupation numbers 
     1.0000   1.0000   1.0000   1.0000   1.0000   1.0000   1.0000   1.0000
     0.0000   0.0000   0.0000   0.0000   0.0000   0.0000   0.0000   0.0000

          k = 0.4167 0.0481 0.0000 (  3045 PWs)   bands (ev):

   -16.9833 -16.8666 -10.0129  -9.9492  -7.9935  -7.9523  -4.9569  -4.1612
     3.6537   4.1796   7.0898   7.4930   8.2945   9.3874   9.4176   9.6655

     occupation numbers 
     1.0000   1.0000   1.0000   1.0000   1.0000   1.0000   1.0000   1.0000
     0.0000   0.0000   0.0000   0.0000   0.0000   0.0000   0.0000   0.0000

          k =-0.2500-0.3368 0.0000 (  3045 PWs)   bands (ev):

   -16.9836 -16.8664 -10.0081  -9.9551  -7.9897  -7.9549  -4.9606  -4.1569
     3.7215   4.1018   7.0890   7.4999   8.2947   9.4123   9.4222   9.6982

     occupation numbers 
     1.0000   1.0000   1.0000   1.0000   1.0000   1.0000   1.0000   1.0000
     0.0000   0.0000   0.0000   0.0000   0.0000   0.0000   0.0000   0.0000

          k = 0.4167-0.0481 0.0000 (  3045 PWs)   bands (ev):

   -16.9833 -16.8666 -10.0129  -9.9492  -7.9935  -7.9523  -4.9569  -4.1612
     3.6537   4.1796   7.0898   7.4930   8.2945   9.3874   9.4176   9.6656

     occupation numbers 
     1.0000   1.0000   1.0000   1.0000   1.0000   1.0000   1.0000   1.0000
     0.0000   0.0000   0.0000   0.0000   0.0000   0.0000   0.0000   0.0000

          k =-0.1667 0.4811 0.0000 (  3041 PWs)   bands (ev):

   -15.6069 -15.4997 -11.9208 -11.8487  -8.5658  -8.5247  -3.5099  -2.7696
     1.7523   2.2641   8.9931   9.3302   9.5003   9.5629  10.2870  10.7693

     occupation numbers 
     1.0000   1.0000   1.0000   1.0000   1.0000   1.0000   1.0000   1.0000
     0.0000   0.0000   0.0000   0.0000   0.0000   0.0000   0.0000   0.0000

          k =-0.3333 0.3849 0.0000 (  3041 PWs)   bands (ev):

   -15.6058 -15.5009 -11.9201 -11.8484  -8.5668  -8.5248  -3.4849  -2.8042
     1.7781   2.2534   8.9837   9.4017   9.4334   9.5897  10.2696  10.7230

     occupation numbers 
     1.0000   1.0000   1.0000   1.0000   1.0000   1.0000   1.0000   1.0000
     0.0000   0.0000   0.0000   0.0000   0.0000   0.0000   0.0000   0.0000

          k = 0.5000 0.0962 0.0000 (  3041 PWs)   bands (ev):

   -15.6054 -15.5013 -11.9224 -11.8457  -8.5680  -8.5240  -3.4812  -2.8075
     1.7259   2.3104   8.9896   9.3087   9.4818   9.5877  10.2907  10.8146

     occupation numbers 
     1.0000   1.0000   1.0000   1.0000   1.0000   1.0000   1.0000   1.0000
     0.0000   0.0000   0.0000   0.0000   0.0000   0.0000   0.0000   0.0000

          k =-0.3333-0.3849 0.0000 (  3041 PWs)   bands (ev):

   -15.6058 -15.5009 -11.9201 -11.8484  -8.5668  -8.5248  -3.4849  -2.8042
     1.7781   2.2534   8.9837   9.4017   9.4334   9.5897  10.2696  10.7230

     occupation numbers 
     1.0000   1.0000   1.0000   1.0000   1.0000   1.0000   1.0000   1.0000
     0.0000   0.0000   0.0000   0.0000   0.0000   0.0000   0.0000   0.0000

          k = 0.5000-0.0962 0.0000 (  3041 PWs)   bands (ev):

   -15.6054 -15.5013 -11.9224 -11.8457  -8.5680  -8.5240  -3.4812  -2.8075
     1.7259   2.3104   8.9896   9.3087   9.4818   9.5877  10.2907  10.8145

     occupation numbers 
     1.0000   1.0000   1.0000   1.0000   1.0000   1.0000   1.0000   1.0000
     0.0000   0.0000   0.0000   0.0000   0.0000   0.0000   0.0000   0.0000

          k =-0.4167 0.4330 0.0000 (  3008 PWs)   bands (ev):

   -14.3587 -14.2915 -13.3396 -13.2835  -8.7520  -8.7077  -2.4943  -2.0514
     0.7248   1.2172   9.2865   9.4969  10.8346  11.1349  11.3208  11.3491

     occupation numbers 
     1.0000   1.0000   1.0000   1.0000   1.0000   1.0000   1.0000   1.0000
     0.0000   0.0000   0.0000   0.0000   0.0000   0.0000   0.0000   0.0000

          k = 0.5833 0.1443 0.0000 (  3008 PWs)   bands (ev):

   -14.3587 -14.2915 -13.3396 -13.2835  -8.7520  -8.7077  -2.4943  -2.0514
     0.7248   1.2172   9.2865   9.4969  10.8346  11.1349  11.3208  11.3491

     occupation numbers 
     1.0000   1.0000   1.0000   1.0000   1.0000   1.0000   1.0000   1.0000
     0.0000   0.0000   0.0000   0.0000   0.0000   0.0000   0.0000   0.0000

          k =-0.2500 0.4330 0.0000 (  3033 PWs)   bands (ev):

   -15.7541 -15.6469 -11.0372 -10.9898  -9.4648  -9.4299  -3.5927  -2.8557
     2.1143   2.4907   8.7981   9.1486   9.9911  10.3203  11.0716  11.4422

     occupation numbers 
     1.0000   1.0000   1.0000   1.0000   1.0000   1.0000   1.0000   1.0000
     0.0000   0.0000   0.0000   0.0000   0.0000   0.0000   0.0000   0.0000

          k = 0.5000 0.0000 0.0000 (  3033 PWs)   bands (ev):

   -15.7534 -15.6476 -11.0482 -10.9765  -9.4747  -9.4222  -3.5813  -2.8690
     2.0236   2.5951   8.7993   9.1112  10.0117  10.3751  11.0018  11.4556

     occupation numbers 
     1.0000   1.0000   1.0000   1.0000   1.0000   1.0000   1.0000   1.0000
     0.0000   0.0000   0.0000   0.0000   0.0000   0.0000   0.0000   0.0000

          k =-0.2500 0.5292 0.0000 (  3013 PWs)   bands (ev):

   -14.3313 -14.2345 -12.4626 -12.3956 -10.1759 -10.1276  -2.1818  -1.5105
     0.5737   1.0030   9.9055  10.6933  10.8083  11.4967  11.8563  12.2918

     occupation numbers 
     1.0000   1.0000   1.0000   1.0000   1.0000   1.0000   1.0000   1.0000
     0.0000   0.0000   0.0000   0.0000   0.0000   0.0000   0.0000   0.0000

          k =-0.3333 0.4811 0.0000 (  3013 PWs)   bands (ev):

   -14.3286 -14.2378 -12.4609 -12.3958 -10.1773 -10.1271  -2.1389  -1.5751
     0.5930   1.0107   9.8895  10.7163  10.7929  11.4798  11.7917  12.3046

     occupation numbers 
     1.0000   1.0000   1.0000   1.0000   1.0000   1.0000   1.0000   1.0000
     0.0000   0.0000   0.0000   0.0000   0.0000   0.0000   0.0000   0.0000

          k = 0.5833 0.0481 0.0000 (  3013 PWs)   bands (ev):

   -14.3277 -14.2387 -12.4677 -12.3883 -10.1804 -10.1247  -2.1305  -1.5784
     0.5106   1.0929   9.8498  10.7152  10.8665  11.4701  11.8564  12.2285

     occupation numbers 
     1.0000   1.0000   1.0000   1.0000   1.0000   1.0000   1.0000   1.0000
     0.0000   0.0000   0.0000   0.0000   0.0000   0.0000   0.0000   0.0000

          k =-0.3333-0.4811 0.0000 (  3013 PWs)   bands (ev):

   -14.3286 -14.2378 -12.4609 -12.3958 -10.1773 -10.1271  -2.1389  -1.5751
     0.5930   1.0107   9.8895  10.7163  10.7929  11.4798  11.7917  12.3033

     occupation numbers 
     1.0000   1.0000   1.0000   1.0000   1.0000   1.0000   1.0000   1.0000
     0.0000   0.0000   0.0000   0.0000   0.0000   0.0000   0.0000   0.0000

          k = 0.5833-0.0481 0.0000 (  3013 PWs)   bands (ev):

   -14.3277 -14.2387 -12.4677 -12.3883 -10.1804 -10.1247  -2.1305  -1.5784
     0.5106   1.0929   9.8498  10.7152  10.8665  11.4700  11.8564  12.2275

     occupation numbers 
     1.0000   1.0000   1.0000   1.0000   1.0000   1.0000   1.0000   1.0000
     0.0000   0.0000   0.0000   0.0000   0.0000   0.0000   0.0000   0.0000

     the Fermi energy is    -0.3355 ev

!    total energy              =     -45.57804844 Ry
     Harris-Foulkes estimate   =     -45.57804843 Ry
     estimated scf accuracy    <          1.8E-12 Ry

     The total energy is the sum of the following terms:

     one-electron contribution =    -534.85198708 Ry
     hartree contribution      =     270.89848391 Ry
     xc contribution           =     -14.03219207 Ry
     ewald contribution        =     232.40764680 Ry
     smearing contrib. (-TS)   =       0.00000000 Ry

     total magnetization       =    -0.00 Bohr mag/cell
     absolute magnetization    =     0.00 Bohr mag/cell

     convergence has been achieved in  14 iterations

     Forces acting on atoms (Ry/au):

     atom    1 type  1   force =     0.00038043   -0.00015584   -0.00246435
     atom    2 type  1   force =     0.00038044    0.00015583   -0.00246435
     atom    3 type  1   force =    -0.00038044   -0.00015611    0.00246435
     atom    4 type  1   force =    -0.00038043    0.00015611    0.00246435
     The non-local contrib.  to forces
     atom    1 type  1   force =     0.00020932    0.00009082   -0.00142570
     atom    2 type  1   force =     0.00020933   -0.00009082   -0.00142569
     atom    3 type  1   force =    -0.00020757    0.00009050    0.00140550
     atom    4 type  1   force =    -0.00020757   -0.00009049    0.00140550
     The ionic contribution  to forces
     atom    1 type  1   force =     0.00088665    0.00063406  -14.13910928
     atom    2 type  1   force =     0.00088665   -0.00063406  -14.13910928
     atom    3 type  1   force =    -0.00088665    0.00063406   14.13910928
     atom    4 type  1   force =    -0.00088665   -0.00063406   14.13910928
     The local contribution  to forces
     atom    1 type  1   force =    -0.00071457   -0.00088075   14.13805897
     atom    2 type  1   force =    -0.00071452    0.00088076   14.13805896
     atom    3 type  1   force =     0.00071464   -0.00088070  -14.13806019
     atom    4 type  1   force =     0.00071464    0.00088070  -14.13806019
     The core correction contribution to forces
     atom    1 type  1   force =     0.00000000    0.00000000    0.00000000
     atom    2 type  1   force =     0.00000000    0.00000000    0.00000000
     atom    3 type  1   force =     0.00000000    0.00000000    0.00000000
     atom    4 type  1   force =     0.00000000    0.00000000    0.00000000
     The Hubbard contrib.    to forces
     atom    1 type  1   force =     0.00000000    0.00000000    0.00000000
     atom    2 type  1   force =     0.00000000    0.00000000    0.00000000
     atom    3 type  1   force =     0.00000000    0.00000000    0.00000000
     atom    4 type  1   force =     0.00000000    0.00000000    0.00000000
     The SCF correction term to forces
     atom    1 type  1   force =    -0.00000005    0.00000004    0.00000107
     atom    2 type  1   force =    -0.00000009   -0.00000005    0.00000107
     atom    3 type  1   force =     0.00000007    0.00000004   -0.00000083
     atom    4 type  1   force =     0.00000006   -0.00000004   -0.00000083

     Total force =     0.004997     Total SCF correction =     0.000002


     entering subroutine stress ...

          total   stress  (Ry/bohr**3)                   (kbar)     P=   -4.64
  -0.00006484  -0.00000000  -0.00000686         -9.54     -0.00     -1.01
  -0.00000000  -0.00006780  -0.00000000         -0.00     -9.97     -0.00
  -0.00000686  -0.00000000   0.00003810         -1.01     -0.00      5.61

     kinetic stress (kbar)   3525.70     -0.00     -1.17
                               -0.00   3525.03      0.00
                               -1.17      0.00   4089.01

     local   stress (kbar)-114359.09     -0.00      3.85
                               -0.00-114356.85     -0.00
                                3.85     -0.00 116680.45

     nonloc. stress (kbar)   -152.47      0.00      0.08
                                0.00   -152.47     -0.00
                                0.08     -0.00   -151.55

     hartree stress (kbar)  55657.76      0.00     -1.40
                                0.00  55656.73      0.00
                               -1.40      0.00 -55313.23

     exc-cor stress (kbar)   -891.41      0.00     -0.03
                                0.00   -891.41     -0.00
                               -0.03     -0.00   -924.38

     corecor stress (kbar)      0.00      0.00      0.00
                                0.00      0.00      0.00
                                0.00      0.00      0.00

     ewald   stress (kbar)  56209.97      0.00     -2.34
                                0.00  56208.99     -0.00
                               -2.34     -0.00 -64374.69

     hubbard stress (kbar)      0.00      0.00      0.00
                                0.00      0.00      0.00
                                0.00      0.00      0.00

     london  stress (kbar)      0.00      0.00      0.00
                                0.00      0.00      0.00
                                0.00      0.00      0.00

     XDM     stress (kbar)      0.00      0.00      0.00
                                0.00      0.00      0.00
                                0.00      0.00      0.00

     dft-nl  stress (kbar)      0.00      0.00      0.00
                                0.00      0.00      0.00
                                0.00      0.00      0.00



     Writing output data file g.dos1.save

     init_run     :      8.87s CPU      8.99s WALL (       1 calls)
     electrons    :    336.40s CPU    337.81s WALL (       1 calls)
     forces       :      5.03s CPU      5.03s WALL (       1 calls)
     stress       :     10.13s CPU     10.15s WALL (       1 calls)

     Called by init_run:
     wfcinit      :      6.98s CPU      7.05s WALL (       1 calls)
     potinit      :      0.82s CPU      0.85s WALL (       1 calls)

     Called by electrons:
     c_bands      :    274.50s CPU    275.61s WALL (      14 calls)
     sum_band     :     45.99s CPU     46.23s WALL (      14 calls)
     v_of_rho     :      9.88s CPU      9.92s WALL (      15 calls)
     v_h          :      0.19s CPU      0.19s WALL (      15 calls)
     v_xc         :      9.69s CPU      9.73s WALL (      15 calls)
     newd         :      5.55s CPU      5.55s WALL (      15 calls)
     mix_rho      :      0.84s CPU      0.85s WALL (      14 calls)

     Called by c_bands:
     init_us_2    :      5.40s CPU      5.43s WALL (    4588 calls)
     cegterg      :    265.54s CPU    266.60s WALL (    2072 calls)

     Called by sum_band:
     sum_band:bec :      0.04s CPU      0.04s WALL (    2072 calls)
     addusdens    :      5.75s CPU      5.76s WALL (      14 calls)

     Called by *egterg:
     h_psi        :    162.25s CPU    163.21s WALL (    7927 calls)
     s_psi        :     23.56s CPU     23.59s WALL (    7927 calls)
     g_psi        :      1.05s CPU      1.05s WALL (    5707 calls)
     cdiaghg      :      6.69s CPU      6.72s WALL (    7779 calls)
     cegterg:over :     30.76s CPU     30.81s WALL (    5707 calls)
     cegterg:upda :     18.85s CPU     18.89s WALL (    5707 calls)
     cegterg:last :     12.70s CPU     12.72s WALL (    2122 calls)

     Called by h_psi:
     h_psi:vloc   :    112.05s CPU    112.86s WALL (    7927 calls)
     h_psi:vnl    :     49.31s CPU     49.46s WALL (    7927 calls)
     add_vuspsi   :     23.68s CPU     23.72s WALL (    7927 calls)

     General routines
     calbec       :     37.51s CPU     37.67s WALL (   10295 calls)
     fft          :      4.88s CPU      4.89s WALL (     468 calls)
     ffts         :      0.05s CPU      0.05s WALL (      58 calls)
     fftw         :     93.90s CPU     94.55s WALL (  196892 calls)
     interpolate  :      0.71s CPU      0.71s WALL (      58 calls)

     Parallel routines
     fft_scatter  :     17.18s CPU     17.30s WALL (  197418 calls)

     PWSCF        :  6m 1.16s CPU     6m 2.83s WALL


   This run was terminated on:   6:44:46   1May2020            

=------------------------------------------------------------------------------=
   JOB DONE.
=------------------------------------------------------------------------------=
