
     Program PWSCF v.5.1 starts on 31Mar2020 at 16: 2:54 

     This program is part of the open-source Quantum ESPRESSO suite
     for quantum simulation of materials; please cite
         "P. Giannozzi et al., J. Phys.:Condens. Matter 21 395502 (2009);
          URL http://www.quantum-espresso.org", 
     in publications or presentations arising from this work. More details at
     http://www.quantum-espresso.org/quote

     Parallel version (MPI), running on     1 processors
     Waiting for input...
     Reading input from standard input

     Current dimensions of program PWSCF are:
     Max number of different atomic species (ntypx) = 10
     Max number of k-points (npk) =  40000
     Max angular momentum in pseudopotentials (lmaxx) =  3

     Atomic positions and unit cell read from directory:
     ../tmp/graphene.save/


     IMPORTANT: XC functional enforced from input :
     Exchange-correlation      = PBE ( 1  4  3  4 0)
     Any further DFT definition will be discarded
     Please, verify this is what you really want

               file C.pbe-rrkjus.UPF: wavefunction(s)  2S 2P renormalized

     Subspace diagonalization in iterative solution of the eigenvalue problem:
     a serial algorithm will be used


     G-vector sticks info
     --------------------
     sticks:   dense  smooth     PW     G-vecs:    dense   smooth      PW
     Sum         595     241     85                96043    24369    4587



     bravais-lattice index     =           12
     lattice parameter (alat)  =       4.6627  a.u.
     unit-cell volume          =     711.6007 (a.u.)^3
     number of atoms/cell      =            4
     number of atomic types    =            1
     number of electrons       =        16.00
     number of Kohn-Sham states=           32
     kinetic-energy cutoff     =      40.0000  Ry
     charge density cutoff     =     400.0000  Ry
     Exchange-correlation      = PBE ( 1  4  3  4 0)

     celldm(1)=   4.662710  celldm(2)=   1.000000  celldm(3)=   8.105698
     celldm(4)=  -0.500000  celldm(5)=   0.000000  celldm(6)=   0.000000

     crystal axes: (cart. coord. in units of alat)
               a(1) = (   1.000000   0.000000   0.000000 )  
               a(2) = (  -0.500000   0.866025   0.000000 )  
               a(3) = (   0.000000   0.000000   8.105698 )  

     reciprocal axes: (cart. coord. in units 2 pi/alat)
               b(1) = (  1.000000  0.577350 -0.000000 )  
               b(2) = (  0.000000  1.154701  0.000000 )  
               b(3) = (  0.000000 -0.000000  0.123370 )  


     PseudoPot. # 1 for C  read from file:
     ../pseudo/C.pbe-rrkjus.UPF
     MD5 check sum: 00fb224312de0c5b6853bd333518df6f
     Pseudo is Ultrasoft, Zval =  4.0
     Generated by new atomic code, or converted to UPF format
     Using radial grid of  627 points,  4 beta functions with: 
                l(1) =   0
                l(2) =   0
                l(3) =   1
                l(4) =   1
     Q(r) pseudized with 0 coefficients 


     atomic species   valence    mass     pseudopotential
        C              4.00    12.01100     C ( 1.00)

      2 Sym. Ops. (no inversion) found
          (note:  6 additional sym.ops. were found but ignored
           their fractional translations are incommensurate with FFT grid)


   Cartesian axes

     site n.     atom                  positions (alat units)
         1           C   tau(   1) = (   0.0000000   0.0000000  40.5284915  )
         2           C   tau(   2) = (  -0.7122500   1.2336532  40.5284915  )
         3           C   tau(   3) = (   0.0000000   0.0000000  69.0605496  )
         4           C   tau(   4) = (  -0.7122500   1.2336532  69.0605496  )

     number of k points=   151  Marzari-Vanderbilt smearing, width (Ry)=  0.0010

     Number of k-points >= 100: set verbosity='high' to print them.

     Dense  grid:    96043 G-vectors     FFT dimensions: (  30,  30, 243)

     Smooth grid:    24369 G-vectors     FFT dimensions: (  20,  20, 160)

     Largest allocated arrays     est. size (Mb)     dimensions
        Kohn-Sham Wavefunctions         1.50 Mb     (    3069,   32)
        NL pseudopotentials             1.50 Mb     (    3069,   32)
        Each V/rho on FFT grid          3.34 Mb     (  218700)
        Each G-vector array             0.73 Mb     (   96043)
        G-vector shells                 0.04 Mb     (    4763)
     Largest temporary arrays     est. size (Mb)     dimensions
        Auxiliary wavefunctions         5.99 Mb     (    3069,  128)
        Each subspace H/S matrix        0.25 Mb     (     128,  128)
        Each <psi_i|beta_j> matrix      0.02 Mb     (      32,   32)

     The potential is recalculated from file :
     ../tmp/graphene.save/charge-density.dat


     negative rho (up, down):  8.008E-07 0.000E+00
     Starting wfc are   16 randomized atomic wfcs +   16 random wfc

     Band Structure Calculation
     Davidson diagonalization with overlap

     ethr =  6.25E-09,  avg # of iterations = 17.1

     total cpu time spent up to now is      181.9 secs

     End of band structure calculation

     Number of k-points >= 100: set verbosity='high' to print the bands.

     Writing output data file graphene.save

     init_run     :      0.61s CPU      0.65s WALL (       1 calls)
     electrons    :    179.44s CPU    181.18s WALL (       1 calls)

     Called by init_run:
     wfcinit      :      0.00s CPU      0.00s WALL (       1 calls)
     potinit      :      0.14s CPU      0.17s WALL (       1 calls)

     Called by electrons:
     c_bands      :    179.44s CPU    181.18s WALL (       1 calls)
     v_of_rho     :      0.12s CPU      0.14s WALL (       1 calls)
     newd         :      0.15s CPU      0.15s WALL (       1 calls)

     Called by c_bands:
     init_us_2    :      0.10s CPU      0.11s WALL (     151 calls)
     cegterg      :    170.02s CPU    171.63s WALL (     168 calls)

     Called by *egterg:
     h_psi        :     57.31s CPU     57.86s WALL (    2903 calls)
     s_psi        :      8.41s CPU      8.46s WALL (    2903 calls)
     g_psi        :      0.54s CPU      0.54s WALL (    2584 calls)
     cdiaghg      :     11.83s CPU     11.86s WALL (    2735 calls)

     Called by h_psi:
     add_vuspsi   :      8.42s CPU      8.45s WALL (    2903 calls)

     General routines
     calbec       :      9.27s CPU      9.32s WALL (    2903 calls)
     fft          :      0.07s CPU      0.08s WALL (      12 calls)
     ffts         :      0.00s CPU      0.00s WALL (       1 calls)
     fftw         :     28.05s CPU     28.37s WALL (  105768 calls)
     interpolate  :      0.01s CPU      0.01s WALL (       1 calls)
     davcio       :      0.05s CPU      0.16s WALL (     151 calls)

     Parallel routines
     fft_scatter  :      4.65s CPU      4.70s WALL (  105781 calls)

     PWSCF        :  3m 0.36s CPU     3m 2.32s WALL


   This run was terminated on:  16: 5:56  31Mar2020            

=------------------------------------------------------------------------------=
   JOB DONE.
=------------------------------------------------------------------------------=
