
     Program PWSCF v.5.1 starts on 21Apr2020 at 12:18:42 

     This program is part of the open-source Quantum ESPRESSO suite
     for quantum simulation of materials; please cite
         "P. Giannozzi et al., J. Phys.:Condens. Matter 21 395502 (2009);
          URL http://www.quantum-espresso.org", 
     in publications or presentations arising from this work. More details at
     http://www.quantum-espresso.org/quote

     Parallel version (MPI), running on     1 processors
     Waiting for input...
     Reading input from standard input

     Current dimensions of program PWSCF are:
     Max number of different atomic species (ntypx) = 10
     Max number of k-points (npk) =  40000
     Max angular momentum in pseudopotentials (lmaxx) =  3

     Atomic positions and unit cell read from directory:
     ../tmp/g.dos1.save/


     IMPORTANT: XC functional enforced from input :
     Exchange-correlation      = PBE ( 1  4  3  4 0)
     Any further DFT definition will be discarded
     Please, verify this is what you really want

               file C.pbe-rrkjus.UPF: wavefunction(s)  2S 2P renormalized

     Subspace diagonalization in iterative solution of the eigenvalue problem:
     a serial algorithm will be used


     G-vector sticks info
     --------------------
     sticks:   dense  smooth     PW     G-vecs:    dense   smooth      PW
     Sum         595     241     85                96043    24369    4587



     bravais-lattice index     =           12
     lattice parameter (alat)  =       4.6627  a.u.
     unit-cell volume          =     711.6007 (a.u.)^3
     number of atoms/cell      =            4
     number of atomic types    =            1
     number of electrons       =        16.00
     number of Kohn-Sham states=            8
     kinetic-energy cutoff     =      40.0000  Ry
     charge density cutoff     =     400.0000  Ry
     Exchange-correlation      = PBE ( 1  4  3  4 0)

     celldm(1)=   4.662710  celldm(2)=   1.000000  celldm(3)=   8.105698
     celldm(4)=  -0.500000  celldm(5)=   0.000000  celldm(6)=   0.000000

     crystal axes: (cart. coord. in units of alat)
               a(1) = (   1.000000   0.000000   0.000000 )  
               a(2) = (  -0.500000   0.866025   0.000000 )  
               a(3) = (   0.000000   0.000000   8.105698 )  

     reciprocal axes: (cart. coord. in units 2 pi/alat)
               b(1) = (  1.000000  0.577350 -0.000000 )  
               b(2) = (  0.000000  1.154701  0.000000 )  
               b(3) = (  0.000000 -0.000000  0.123370 )  


     PseudoPot. # 1 for C  read from file:
     ../pseudo/C.pbe-rrkjus.UPF
     MD5 check sum: 00fb224312de0c5b6853bd333518df6f
     Pseudo is Ultrasoft, Zval =  4.0
     Generated by new atomic code, or converted to UPF format
     Using radial grid of  627 points,  4 beta functions with: 
                l(1) =   0
                l(2) =   0
                l(3) =   1
                l(4) =   1
     Q(r) pseudized with 0 coefficients 


     atomic species   valence    mass     pseudopotential
        C              4.00    12.01100     C ( 1.00)

     No symmetry found
          (note:  3 additional sym.ops. were found but ignored
           their fractional translations are incommensurate with FFT grid)

                                    s                        frac. trans.

      isym =  1     identity                                     

 cryst.   s( 1) = (     1          0          0      )
                  (     0          1          0      )
                  (     0          0          1      )

 cart.    s( 1) = (  1.0000000  0.0000000  0.0000000 )
                  (  0.0000000  1.0000000  0.0000000 )
                  (  0.0000000  0.0000000  1.0000000 )


     point group C_1 (1)    
     there are  1 classes
     the character table:

       E    
A      1.00

     the symmetry operations in each class:
     E        1

   Cartesian axes

     site n.     atom                  positions (alat units)
         1           C   tau(   1) = (   0.0000000   0.0000000   2.0264246  )
         2           C   tau(   2) = (   0.0000000   0.5773284   2.0264246  )
         3           C   tau(   3) = (   0.1621140   0.0000000   3.4368161  )
         4           C   tau(   4) = (   0.1621140   0.5773284   3.4368161  )

   Crystallographic axes

     site n.     atom                  positions (cryst. coord.)
         1           C   tau(   1) = (  0.0000000  0.0000000  0.2500000  )
         2           C   tau(   2) = (  0.3333207  0.6666414  0.2500000  )
         3           C   tau(   3) = (  0.1621140  0.0000000  0.4240000  )
         4           C   tau(   4) = (  0.4954347  0.6666414  0.4240000  )

     number of k points=  1154 (tetrahedron method)
                       cart. coord. in units 2pi/alat
        k(    1) = (   0.0000000   0.0000000   0.0000000), wk =   0.0008681
        k(    2) = (   0.0000000   0.0240563   0.0000000), wk =   0.0017361
        k(    3) = (   0.0000000   0.0481125   0.0000000), wk =   0.0017361
        k(    4) = (   0.0000000   0.0721688   0.0000000), wk =   0.0017361
        k(    5) = (   0.0000000   0.0962250   0.0000000), wk =   0.0017361
        k(    6) = (   0.0000000   0.1202813   0.0000000), wk =   0.0017361
        k(    7) = (   0.0000000   0.1443376   0.0000000), wk =   0.0017361
        k(    8) = (   0.0000000   0.1683938   0.0000000), wk =   0.0017361
        k(    9) = (   0.0000000   0.1924501   0.0000000), wk =   0.0017361
        k(   10) = (   0.0000000   0.2165064   0.0000000), wk =   0.0017361
        k(   11) = (   0.0000000   0.2405626   0.0000000), wk =   0.0017361
        k(   12) = (   0.0000000   0.2646189   0.0000000), wk =   0.0017361
        k(   13) = (   0.0000000   0.2886751   0.0000000), wk =   0.0017361
        k(   14) = (   0.0000000   0.3127314   0.0000000), wk =   0.0017361
        k(   15) = (   0.0000000   0.3367877   0.0000000), wk =   0.0017361
        k(   16) = (   0.0000000   0.3608439   0.0000000), wk =   0.0017361
        k(   17) = (   0.0000000   0.3849002   0.0000000), wk =   0.0017361
        k(   18) = (   0.0000000   0.4089564   0.0000000), wk =   0.0017361
        k(   19) = (   0.0000000   0.4330127   0.0000000), wk =   0.0017361
        k(   20) = (   0.0000000   0.4570690   0.0000000), wk =   0.0017361
        k(   21) = (   0.0000000   0.4811252   0.0000000), wk =   0.0017361
        k(   22) = (   0.0000000   0.5051815   0.0000000), wk =   0.0017361
        k(   23) = (   0.0000000   0.5292377   0.0000000), wk =   0.0017361
        k(   24) = (   0.0000000   0.5532940   0.0000000), wk =   0.0017361
        k(   25) = (   0.0000000  -0.5773503   0.0000000), wk =   0.0008681
        k(   26) = (   0.0208333   0.0360844   0.0000000), wk =   0.0017361
        k(   27) = (   0.0208333   0.0601407   0.0000000), wk =   0.0017361
        k(   28) = (   0.0208333   0.0841969   0.0000000), wk =   0.0017361
        k(   29) = (   0.0208333   0.1082532   0.0000000), wk =   0.0017361
        k(   30) = (   0.0208333   0.1323094   0.0000000), wk =   0.0017361
        k(   31) = (   0.0208333   0.1563657   0.0000000), wk =   0.0017361
        k(   32) = (   0.0208333   0.1804220   0.0000000), wk =   0.0017361
        k(   33) = (   0.0208333   0.2044782   0.0000000), wk =   0.0017361
        k(   34) = (   0.0208333   0.2285345   0.0000000), wk =   0.0017361
        k(   35) = (   0.0208333   0.2525907   0.0000000), wk =   0.0017361
        k(   36) = (   0.0208333   0.2766470   0.0000000), wk =   0.0017361
        k(   37) = (   0.0208333   0.3007033   0.0000000), wk =   0.0017361
        k(   38) = (   0.0208333   0.3247595   0.0000000), wk =   0.0017361
        k(   39) = (   0.0208333   0.3488158   0.0000000), wk =   0.0017361
        k(   40) = (   0.0208333   0.3728720   0.0000000), wk =   0.0017361
        k(   41) = (   0.0208333   0.3969283   0.0000000), wk =   0.0017361
        k(   42) = (   0.0208333   0.4209846   0.0000000), wk =   0.0017361
        k(   43) = (   0.0208333   0.4450408   0.0000000), wk =   0.0017361
        k(   44) = (   0.0208333   0.4690971   0.0000000), wk =   0.0017361
        k(   45) = (   0.0208333   0.4931534   0.0000000), wk =   0.0017361
        k(   46) = (   0.0208333   0.5172096   0.0000000), wk =   0.0017361
        k(   47) = (   0.0208333   0.5412659   0.0000000), wk =   0.0017361
        k(   48) = (   0.0208333   0.5653221   0.0000000), wk =   0.0017361
        k(   49) = (   0.0416667   0.0721688   0.0000000), wk =   0.0017361
        k(   50) = (   0.0416667   0.0962250   0.0000000), wk =   0.0017361
        k(   51) = (   0.0416667   0.1202813   0.0000000), wk =   0.0017361
        k(   52) = (   0.0416667   0.1443376   0.0000000), wk =   0.0017361
        k(   53) = (   0.0416667   0.1683938   0.0000000), wk =   0.0017361
        k(   54) = (   0.0416667   0.1924501   0.0000000), wk =   0.0017361
        k(   55) = (   0.0416667   0.2165064   0.0000000), wk =   0.0017361
        k(   56) = (   0.0416667   0.2405626   0.0000000), wk =   0.0017361
        k(   57) = (   0.0416667   0.2646189   0.0000000), wk =   0.0017361
        k(   58) = (   0.0416667   0.2886751   0.0000000), wk =   0.0017361
        k(   59) = (   0.0416667   0.3127314   0.0000000), wk =   0.0017361
        k(   60) = (   0.0416667   0.3367877   0.0000000), wk =   0.0017361
        k(   61) = (   0.0416667   0.3608439   0.0000000), wk =   0.0017361
        k(   62) = (   0.0416667   0.3849002   0.0000000), wk =   0.0017361
        k(   63) = (   0.0416667   0.4089564   0.0000000), wk =   0.0017361
        k(   64) = (   0.0416667   0.4330127   0.0000000), wk =   0.0017361
        k(   65) = (   0.0416667   0.4570690   0.0000000), wk =   0.0017361
        k(   66) = (   0.0416667   0.4811252   0.0000000), wk =   0.0017361
        k(   67) = (   0.0416667   0.5051815   0.0000000), wk =   0.0017361
        k(   68) = (   0.0416667   0.5292377   0.0000000), wk =   0.0017361
        k(   69) = (   0.0416667   0.5532940   0.0000000), wk =   0.0017361
        k(   70) = (   0.0416667   0.5773503   0.0000000), wk =   0.0017361
        k(   71) = (   0.0625000   0.1082532   0.0000000), wk =   0.0017361
        k(   72) = (   0.0625000   0.1323094   0.0000000), wk =   0.0017361
        k(   73) = (   0.0625000   0.1563657   0.0000000), wk =   0.0017361
        k(   74) = (   0.0625000   0.1804220   0.0000000), wk =   0.0017361
        k(   75) = (   0.0625000   0.2044782   0.0000000), wk =   0.0017361
        k(   76) = (   0.0625000   0.2285345   0.0000000), wk =   0.0017361
        k(   77) = (   0.0625000   0.2525907   0.0000000), wk =   0.0017361
        k(   78) = (   0.0625000   0.2766470   0.0000000), wk =   0.0017361
        k(   79) = (   0.0625000   0.3007033   0.0000000), wk =   0.0017361
        k(   80) = (   0.0625000   0.3247595   0.0000000), wk =   0.0017361
        k(   81) = (   0.0625000   0.3488158   0.0000000), wk =   0.0017361
        k(   82) = (   0.0625000   0.3728720   0.0000000), wk =   0.0017361
        k(   83) = (   0.0625000   0.3969283   0.0000000), wk =   0.0017361
        k(   84) = (   0.0625000   0.4209846   0.0000000), wk =   0.0017361
        k(   85) = (   0.0625000   0.4450408   0.0000000), wk =   0.0017361
        k(   86) = (   0.0625000   0.4690971   0.0000000), wk =   0.0017361
        k(   87) = (   0.0625000   0.4931534   0.0000000), wk =   0.0017361
        k(   88) = (   0.0625000   0.5172096   0.0000000), wk =   0.0017361
        k(   89) = (   0.0625000   0.5412659   0.0000000), wk =   0.0017361
        k(   90) = (   0.0625000   0.5653221   0.0000000), wk =   0.0017361
        k(   91) = (   0.0833333   0.1443376   0.0000000), wk =   0.0017361
        k(   92) = (   0.0833333   0.1683938   0.0000000), wk =   0.0017361
        k(   93) = (   0.0833333   0.1924501   0.0000000), wk =   0.0017361
        k(   94) = (   0.0833333   0.2165064   0.0000000), wk =   0.0017361
        k(   95) = (   0.0833333   0.2405626   0.0000000), wk =   0.0017361
        k(   96) = (   0.0833333   0.2646189   0.0000000), wk =   0.0017361
        k(   97) = (   0.0833333   0.2886751   0.0000000), wk =   0.0017361
        k(   98) = (   0.0833333   0.3127314   0.0000000), wk =   0.0017361
        k(   99) = (   0.0833333   0.3367877   0.0000000), wk =   0.0017361
        k(  100) = (   0.0833333   0.3608439   0.0000000), wk =   0.0017361
        k(  101) = (   0.0833333   0.3849002   0.0000000), wk =   0.0017361
        k(  102) = (   0.0833333   0.4089564   0.0000000), wk =   0.0017361
        k(  103) = (   0.0833333   0.4330127   0.0000000), wk =   0.0017361
        k(  104) = (   0.0833333   0.4570690   0.0000000), wk =   0.0017361
        k(  105) = (   0.0833333   0.4811252   0.0000000), wk =   0.0017361
        k(  106) = (   0.0833333   0.5051815   0.0000000), wk =   0.0017361
        k(  107) = (   0.0833333   0.5292377   0.0000000), wk =   0.0017361
        k(  108) = (   0.0833333   0.5532940   0.0000000), wk =   0.0017361
        k(  109) = (   0.0833333   0.5773503   0.0000000), wk =   0.0017361
        k(  110) = (   0.1041667   0.1804220   0.0000000), wk =   0.0017361
        k(  111) = (   0.1041667   0.2044782   0.0000000), wk =   0.0017361
        k(  112) = (   0.1041667   0.2285345   0.0000000), wk =   0.0017361
        k(  113) = (   0.1041667   0.2525907   0.0000000), wk =   0.0017361
        k(  114) = (   0.1041667   0.2766470   0.0000000), wk =   0.0017361
        k(  115) = (   0.1041667   0.3007033   0.0000000), wk =   0.0017361
        k(  116) = (   0.1041667   0.3247595   0.0000000), wk =   0.0017361
        k(  117) = (   0.1041667   0.3488158   0.0000000), wk =   0.0017361
        k(  118) = (   0.1041667   0.3728720   0.0000000), wk =   0.0017361
        k(  119) = (   0.1041667   0.3969283   0.0000000), wk =   0.0017361
        k(  120) = (   0.1041667   0.4209846   0.0000000), wk =   0.0017361
        k(  121) = (   0.1041667   0.4450408   0.0000000), wk =   0.0017361
        k(  122) = (   0.1041667   0.4690971   0.0000000), wk =   0.0017361
        k(  123) = (   0.1041667   0.4931534   0.0000000), wk =   0.0017361
        k(  124) = (   0.1041667   0.5172096   0.0000000), wk =   0.0017361
        k(  125) = (   0.1041667   0.5412659   0.0000000), wk =   0.0017361
        k(  126) = (   0.1041667   0.5653221   0.0000000), wk =   0.0017361
        k(  127) = (   0.1250000   0.2165064   0.0000000), wk =   0.0017361
        k(  128) = (   0.1250000   0.2405626   0.0000000), wk =   0.0017361
        k(  129) = (   0.1250000   0.2646189   0.0000000), wk =   0.0017361
        k(  130) = (   0.1250000   0.2886751   0.0000000), wk =   0.0017361
        k(  131) = (   0.1250000   0.3127314   0.0000000), wk =   0.0017361
        k(  132) = (   0.1250000   0.3367877   0.0000000), wk =   0.0017361
        k(  133) = (   0.1250000   0.3608439   0.0000000), wk =   0.0017361
        k(  134) = (   0.1250000   0.3849002   0.0000000), wk =   0.0017361
        k(  135) = (   0.1250000   0.4089564   0.0000000), wk =   0.0017361
        k(  136) = (   0.1250000   0.4330127   0.0000000), wk =   0.0017361
        k(  137) = (   0.1250000   0.4570690   0.0000000), wk =   0.0017361
        k(  138) = (   0.1250000   0.4811252   0.0000000), wk =   0.0017361
        k(  139) = (   0.1250000   0.5051815   0.0000000), wk =   0.0017361
        k(  140) = (   0.1250000   0.5292377   0.0000000), wk =   0.0017361
        k(  141) = (   0.1250000   0.5532940   0.0000000), wk =   0.0017361
        k(  142) = (   0.1250000   0.5773503   0.0000000), wk =   0.0017361
        k(  143) = (   0.1458333   0.2525907   0.0000000), wk =   0.0017361
        k(  144) = (   0.1458333   0.2766470   0.0000000), wk =   0.0017361
        k(  145) = (   0.1458333   0.3007033   0.0000000), wk =   0.0017361
        k(  146) = (   0.1458333   0.3247595   0.0000000), wk =   0.0017361
        k(  147) = (   0.1458333   0.3488158   0.0000000), wk =   0.0017361
        k(  148) = (   0.1458333   0.3728720   0.0000000), wk =   0.0017361
        k(  149) = (   0.1458333   0.3969283   0.0000000), wk =   0.0017361
        k(  150) = (   0.1458333   0.4209846   0.0000000), wk =   0.0017361
        k(  151) = (   0.1458333   0.4450408   0.0000000), wk =   0.0017361
        k(  152) = (   0.1458333   0.4690971   0.0000000), wk =   0.0017361
        k(  153) = (   0.1458333   0.4931534   0.0000000), wk =   0.0017361
        k(  154) = (   0.1458333   0.5172096   0.0000000), wk =   0.0017361
        k(  155) = (   0.1458333   0.5412659   0.0000000), wk =   0.0017361
        k(  156) = (   0.1458333   0.5653221   0.0000000), wk =   0.0017361
        k(  157) = (   0.1666667   0.2886751   0.0000000), wk =   0.0017361
        k(  158) = (   0.1666667   0.3127314   0.0000000), wk =   0.0017361
        k(  159) = (   0.1666667   0.3367877   0.0000000), wk =   0.0017361
        k(  160) = (   0.1666667   0.3608439   0.0000000), wk =   0.0017361
        k(  161) = (   0.1666667   0.3849002   0.0000000), wk =   0.0017361
        k(  162) = (   0.1666667   0.4089564   0.0000000), wk =   0.0017361
        k(  163) = (   0.1666667   0.4330127   0.0000000), wk =   0.0017361
        k(  164) = (   0.1666667   0.4570690   0.0000000), wk =   0.0017361
        k(  165) = (   0.1666667   0.4811252   0.0000000), wk =   0.0017361
        k(  166) = (   0.1666667   0.5051815   0.0000000), wk =   0.0017361
        k(  167) = (   0.1666667   0.5292377   0.0000000), wk =   0.0017361
        k(  168) = (   0.1666667   0.5532940   0.0000000), wk =   0.0017361
        k(  169) = (   0.1666667   0.5773503   0.0000000), wk =   0.0017361
        k(  170) = (   0.1875000   0.3247595   0.0000000), wk =   0.0017361
        k(  171) = (   0.1875000   0.3488158   0.0000000), wk =   0.0017361
        k(  172) = (   0.1875000   0.3728720   0.0000000), wk =   0.0017361
        k(  173) = (   0.1875000   0.3969283   0.0000000), wk =   0.0017361
        k(  174) = (   0.1875000   0.4209846   0.0000000), wk =   0.0017361
        k(  175) = (   0.1875000   0.4450408   0.0000000), wk =   0.0017361
        k(  176) = (   0.1875000   0.4690971   0.0000000), wk =   0.0017361
        k(  177) = (   0.1875000   0.4931534   0.0000000), wk =   0.0017361
        k(  178) = (   0.1875000   0.5172096   0.0000000), wk =   0.0017361
        k(  179) = (   0.1875000   0.5412659   0.0000000), wk =   0.0017361
        k(  180) = (   0.1875000   0.5653221   0.0000000), wk =   0.0017361
        k(  181) = (   0.2083333   0.3608439   0.0000000), wk =   0.0017361
        k(  182) = (   0.2083333   0.3849002   0.0000000), wk =   0.0017361
        k(  183) = (   0.2083333   0.4089564   0.0000000), wk =   0.0017361
        k(  184) = (   0.2083333   0.4330127   0.0000000), wk =   0.0017361
        k(  185) = (   0.2083333   0.4570690   0.0000000), wk =   0.0017361
        k(  186) = (   0.2083333   0.4811252   0.0000000), wk =   0.0017361
        k(  187) = (   0.2083333   0.5051815   0.0000000), wk =   0.0017361
        k(  188) = (   0.2083333   0.5292377   0.0000000), wk =   0.0017361
        k(  189) = (   0.2083333   0.5532940   0.0000000), wk =   0.0017361
        k(  190) = (   0.2083333   0.5773503   0.0000000), wk =   0.0017361
        k(  191) = (   0.2291667   0.3969283   0.0000000), wk =   0.0017361
        k(  192) = (   0.2291667   0.4209846   0.0000000), wk =   0.0017361
        k(  193) = (   0.2291667   0.4450408   0.0000000), wk =   0.0017361
        k(  194) = (   0.2291667   0.4690971   0.0000000), wk =   0.0017361
        k(  195) = (   0.2291667   0.4931534   0.0000000), wk =   0.0017361
        k(  196) = (   0.2291667   0.5172096   0.0000000), wk =   0.0017361
        k(  197) = (   0.2291667   0.5412659   0.0000000), wk =   0.0017361
        k(  198) = (   0.2291667   0.5653221   0.0000000), wk =   0.0017361
        k(  199) = (   0.2500000   0.4330127   0.0000000), wk =   0.0017361
        k(  200) = (   0.2500000   0.4570690   0.0000000), wk =   0.0017361
        k(  201) = (   0.2500000   0.4811252   0.0000000), wk =   0.0017361
        k(  202) = (   0.2500000   0.5051815   0.0000000), wk =   0.0017361
        k(  203) = (   0.2500000   0.5292377   0.0000000), wk =   0.0017361
        k(  204) = (   0.2500000   0.5532940   0.0000000), wk =   0.0017361
        k(  205) = (   0.2500000   0.5773503   0.0000000), wk =   0.0017361
        k(  206) = (   0.2708333   0.4690971   0.0000000), wk =   0.0017361
        k(  207) = (   0.2708333   0.4931534   0.0000000), wk =   0.0017361
        k(  208) = (   0.2708333   0.5172096   0.0000000), wk =   0.0017361
        k(  209) = (   0.2708333   0.5412659   0.0000000), wk =   0.0017361
        k(  210) = (   0.2708333   0.5653221   0.0000000), wk =   0.0017361
        k(  211) = (   0.2916667   0.5051815   0.0000000), wk =   0.0017361
        k(  212) = (   0.2916667   0.5292377   0.0000000), wk =   0.0017361
        k(  213) = (   0.2916667   0.5532940   0.0000000), wk =   0.0017361
        k(  214) = (   0.2916667   0.5773503   0.0000000), wk =   0.0017361
        k(  215) = (   0.3125000   0.5412659   0.0000000), wk =   0.0017361
        k(  216) = (   0.3125000   0.5653221   0.0000000), wk =   0.0017361
        k(  217) = (   0.3333333   0.5773503   0.0000000), wk =   0.0017361
        k(  218) = (  -0.0208333   0.0120281   0.0000000), wk =   0.0017361
        k(  219) = (   0.0208333   0.0120281   0.0000000), wk =   0.0017361
        k(  220) = (  -0.0416667   0.0240563   0.0000000), wk =   0.0017361
        k(  221) = (   0.0416667   0.0240563   0.0000000), wk =   0.0017361
        k(  222) = (  -0.0625000   0.0360844   0.0000000), wk =   0.0017361
        k(  223) = (   0.0625000   0.0360844   0.0000000), wk =   0.0017361
        k(  224) = (  -0.0833333   0.0481125   0.0000000), wk =   0.0017361
        k(  225) = (   0.0833333   0.0481125   0.0000000), wk =   0.0017361
        k(  226) = (  -0.1041667   0.0601407   0.0000000), wk =   0.0017361
        k(  227) = (   0.1041667   0.0601407   0.0000000), wk =   0.0017361
        k(  228) = (  -0.1250000   0.0721688   0.0000000), wk =   0.0017361
        k(  229) = (   0.1250000   0.0721688   0.0000000), wk =   0.0017361
        k(  230) = (  -0.1458333   0.0841969   0.0000000), wk =   0.0017361
        k(  231) = (   0.1458333   0.0841969   0.0000000), wk =   0.0017361
        k(  232) = (  -0.1666667   0.0962250   0.0000000), wk =   0.0017361
        k(  233) = (   0.1666667   0.0962250   0.0000000), wk =   0.0017361
        k(  234) = (  -0.1875000   0.1082532   0.0000000), wk =   0.0017361
        k(  235) = (   0.1875000   0.1082532   0.0000000), wk =   0.0017361
        k(  236) = (  -0.2083333   0.1202813   0.0000000), wk =   0.0017361
        k(  237) = (   0.2083333   0.1202813   0.0000000), wk =   0.0017361
        k(  238) = (  -0.2291667   0.1323094   0.0000000), wk =   0.0017361
        k(  239) = (   0.2291667   0.1323094   0.0000000), wk =   0.0017361
        k(  240) = (  -0.2500000   0.1443376   0.0000000), wk =   0.0017361
        k(  241) = (   0.2500000   0.1443376   0.0000000), wk =   0.0017361
        k(  242) = (  -0.2708333   0.1563657   0.0000000), wk =   0.0017361
        k(  243) = (   0.2708333   0.1563657   0.0000000), wk =   0.0017361
        k(  244) = (  -0.2916667   0.1683938   0.0000000), wk =   0.0017361
        k(  245) = (   0.2916667   0.1683938   0.0000000), wk =   0.0017361
        k(  246) = (  -0.3125000   0.1804220   0.0000000), wk =   0.0017361
        k(  247) = (   0.3125000   0.1804220   0.0000000), wk =   0.0017361
        k(  248) = (  -0.3333333   0.1924501   0.0000000), wk =   0.0017361
        k(  249) = (   0.3333333   0.1924501   0.0000000), wk =   0.0017361
        k(  250) = (  -0.3541667   0.2044782   0.0000000), wk =   0.0017361
        k(  251) = (   0.3541667   0.2044782   0.0000000), wk =   0.0017361
        k(  252) = (  -0.3750000   0.2165064   0.0000000), wk =   0.0017361
        k(  253) = (   0.3750000   0.2165064   0.0000000), wk =   0.0017361
        k(  254) = (  -0.3958333   0.2285345   0.0000000), wk =   0.0017361
        k(  255) = (   0.3958333   0.2285345   0.0000000), wk =   0.0017361
        k(  256) = (  -0.4166667   0.2405626   0.0000000), wk =   0.0017361
        k(  257) = (   0.4166667   0.2405626   0.0000000), wk =   0.0017361
        k(  258) = (  -0.4375000   0.2525907   0.0000000), wk =   0.0017361
        k(  259) = (   0.4375000   0.2525907   0.0000000), wk =   0.0017361
        k(  260) = (  -0.4583333   0.2646189   0.0000000), wk =   0.0017361
        k(  261) = (   0.4583333   0.2646189   0.0000000), wk =   0.0017361
        k(  262) = (  -0.4791667   0.2766470   0.0000000), wk =   0.0017361
        k(  263) = (   0.4791667   0.2766470   0.0000000), wk =   0.0017361
        k(  264) = (   0.5000000  -0.2886751   0.0000000), wk =   0.0008681
        k(  265) = (  -0.5000000  -0.2886751   0.0000000), wk =   0.0008681
        k(  266) = (  -0.0208333   0.0360844   0.0000000), wk =   0.0017361
        k(  267) = (   0.0416667  -0.0000000   0.0000000), wk =   0.0017361
        k(  268) = (  -0.0208333   0.0601407   0.0000000), wk =   0.0017361
        k(  269) = (  -0.0416667   0.0481125   0.0000000), wk =   0.0017361
        k(  270) = (   0.0625000   0.0120281   0.0000000), wk =   0.0017361
        k(  271) = (  -0.0416667  -0.0481125   0.0000000), wk =   0.0017361
        k(  272) = (   0.0625000  -0.0120281   0.0000000), wk =   0.0017361
        k(  273) = (  -0.0208333   0.0841969   0.0000000), wk =   0.0017361
        k(  274) = (  -0.0625000   0.0601407   0.0000000), wk =   0.0017361
        k(  275) = (   0.0833333   0.0240563   0.0000000), wk =   0.0017361
        k(  276) = (  -0.0625000  -0.0601407   0.0000000), wk =   0.0017361
        k(  277) = (   0.0833333  -0.0240563   0.0000000), wk =   0.0017361
        k(  278) = (  -0.0208333   0.1082532   0.0000000), wk =   0.0017361
        k(  279) = (  -0.0833333   0.0721688   0.0000000), wk =   0.0017361
        k(  280) = (   0.1041667   0.0360844   0.0000000), wk =   0.0017361
        k(  281) = (  -0.0833333  -0.0721688   0.0000000), wk =   0.0017361
        k(  282) = (   0.1041667  -0.0360844   0.0000000), wk =   0.0017361
        k(  283) = (  -0.0208333   0.1323094   0.0000000), wk =   0.0017361
        k(  284) = (  -0.1041667   0.0841969   0.0000000), wk =   0.0017361
        k(  285) = (   0.1250000   0.0481125   0.0000000), wk =   0.0017361
        k(  286) = (  -0.1041667  -0.0841969   0.0000000), wk =   0.0017361
        k(  287) = (   0.1250000  -0.0481125   0.0000000), wk =   0.0017361
        k(  288) = (  -0.0208333   0.1563657   0.0000000), wk =   0.0017361
        k(  289) = (  -0.1250000   0.0962250   0.0000000), wk =   0.0017361
        k(  290) = (   0.1458333   0.0601407   0.0000000), wk =   0.0017361
        k(  291) = (  -0.1250000  -0.0962250   0.0000000), wk =   0.0017361
        k(  292) = (   0.1458333  -0.0601407   0.0000000), wk =   0.0017361
        k(  293) = (  -0.0208333   0.1804220   0.0000000), wk =   0.0017361
        k(  294) = (  -0.1458333   0.1082532   0.0000000), wk =   0.0017361
        k(  295) = (   0.1666667   0.0721688   0.0000000), wk =   0.0017361
        k(  296) = (  -0.1458333  -0.1082532   0.0000000), wk =   0.0017361
        k(  297) = (   0.1666667  -0.0721688   0.0000000), wk =   0.0017361
        k(  298) = (  -0.0208333   0.2044782   0.0000000), wk =   0.0017361
        k(  299) = (  -0.1666667   0.1202813   0.0000000), wk =   0.0017361
        k(  300) = (   0.1875000   0.0841969   0.0000000), wk =   0.0017361
        k(  301) = (  -0.1666667  -0.1202813   0.0000000), wk =   0.0017361
        k(  302) = (   0.1875000  -0.0841969   0.0000000), wk =   0.0017361
        k(  303) = (  -0.0208333   0.2285345   0.0000000), wk =   0.0017361
        k(  304) = (  -0.1875000   0.1323094   0.0000000), wk =   0.0017361
        k(  305) = (   0.2083333   0.0962250   0.0000000), wk =   0.0017361
        k(  306) = (  -0.1875000  -0.1323094   0.0000000), wk =   0.0017361
        k(  307) = (   0.2083333  -0.0962250   0.0000000), wk =   0.0017361
        k(  308) = (  -0.0208333   0.2525907   0.0000000), wk =   0.0017361
        k(  309) = (  -0.2083333   0.1443376   0.0000000), wk =   0.0017361
        k(  310) = (   0.2291667   0.1082532   0.0000000), wk =   0.0017361
        k(  311) = (  -0.2083333  -0.1443376   0.0000000), wk =   0.0017361
        k(  312) = (   0.2291667  -0.1082532   0.0000000), wk =   0.0017361
        k(  313) = (  -0.0208333   0.2766470   0.0000000), wk =   0.0017361
        k(  314) = (  -0.2291667   0.1563657   0.0000000), wk =   0.0017361
        k(  315) = (   0.2500000   0.1202813   0.0000000), wk =   0.0017361
        k(  316) = (  -0.2291667  -0.1563657   0.0000000), wk =   0.0017361
        k(  317) = (   0.2500000  -0.1202813   0.0000000), wk =   0.0017361
        k(  318) = (  -0.0208333   0.3007033   0.0000000), wk =   0.0017361
        k(  319) = (  -0.2500000   0.1683938   0.0000000), wk =   0.0017361
        k(  320) = (   0.2708333   0.1323094   0.0000000), wk =   0.0017361
        k(  321) = (  -0.2500000  -0.1683938   0.0000000), wk =   0.0017361
        k(  322) = (   0.2708333  -0.1323094   0.0000000), wk =   0.0017361
        k(  323) = (  -0.0208333   0.3247595   0.0000000), wk =   0.0017361
        k(  324) = (  -0.2708333   0.1804220   0.0000000), wk =   0.0017361
        k(  325) = (   0.2916667   0.1443376   0.0000000), wk =   0.0017361
        k(  326) = (  -0.2708333  -0.1804220   0.0000000), wk =   0.0017361
        k(  327) = (   0.2916667  -0.1443376   0.0000000), wk =   0.0017361
        k(  328) = (  -0.0208333   0.3488158   0.0000000), wk =   0.0017361
        k(  329) = (  -0.2916667   0.1924501   0.0000000), wk =   0.0017361
        k(  330) = (   0.3125000   0.1563657   0.0000000), wk =   0.0017361
        k(  331) = (  -0.2916667  -0.1924501   0.0000000), wk =   0.0017361
        k(  332) = (   0.3125000  -0.1563657   0.0000000), wk =   0.0017361
        k(  333) = (  -0.0208333   0.3728720   0.0000000), wk =   0.0017361
        k(  334) = (  -0.3125000   0.2044782   0.0000000), wk =   0.0017361
        k(  335) = (   0.3333333   0.1683938   0.0000000), wk =   0.0017361
        k(  336) = (  -0.3125000  -0.2044782   0.0000000), wk =   0.0017361
        k(  337) = (   0.3333333  -0.1683938   0.0000000), wk =   0.0017361
        k(  338) = (  -0.0208333   0.3969283   0.0000000), wk =   0.0017361
        k(  339) = (  -0.3333333   0.2165064   0.0000000), wk =   0.0017361
        k(  340) = (   0.3541667   0.1804220   0.0000000), wk =   0.0017361
        k(  341) = (  -0.3333333  -0.2165064   0.0000000), wk =   0.0017361
        k(  342) = (   0.3541667  -0.1804220   0.0000000), wk =   0.0017361
        k(  343) = (  -0.0208333   0.4209846   0.0000000), wk =   0.0017361
        k(  344) = (  -0.3541667   0.2285345   0.0000000), wk =   0.0017361
        k(  345) = (   0.3750000   0.1924501   0.0000000), wk =   0.0017361
        k(  346) = (  -0.3541667  -0.2285345   0.0000000), wk =   0.0017361
        k(  347) = (   0.3750000  -0.1924501   0.0000000), wk =   0.0017361
        k(  348) = (  -0.0208333   0.4450408   0.0000000), wk =   0.0017361
        k(  349) = (  -0.3750000   0.2405626   0.0000000), wk =   0.0017361
        k(  350) = (   0.3958333   0.2044782   0.0000000), wk =   0.0017361
        k(  351) = (  -0.3750000  -0.2405626   0.0000000), wk =   0.0017361
        k(  352) = (   0.3958333  -0.2044782   0.0000000), wk =   0.0017361
        k(  353) = (  -0.0208333   0.4690971   0.0000000), wk =   0.0017361
        k(  354) = (  -0.3958333   0.2525907   0.0000000), wk =   0.0017361
        k(  355) = (   0.4166667   0.2165064   0.0000000), wk =   0.0017361
        k(  356) = (  -0.3958333  -0.2525907   0.0000000), wk =   0.0017361
        k(  357) = (   0.4166667  -0.2165064   0.0000000), wk =   0.0017361
        k(  358) = (  -0.0208333   0.4931534   0.0000000), wk =   0.0017361
        k(  359) = (  -0.4166667   0.2646189   0.0000000), wk =   0.0017361
        k(  360) = (   0.4375000   0.2285345   0.0000000), wk =   0.0017361
        k(  361) = (  -0.4166667  -0.2646189   0.0000000), wk =   0.0017361
        k(  362) = (   0.4375000  -0.2285345   0.0000000), wk =   0.0017361
        k(  363) = (  -0.0208333   0.5172096   0.0000000), wk =   0.0017361
        k(  364) = (  -0.4375000   0.2766470   0.0000000), wk =   0.0017361
        k(  365) = (   0.4583333   0.2405626   0.0000000), wk =   0.0017361
        k(  366) = (  -0.4375000  -0.2766470   0.0000000), wk =   0.0017361
        k(  367) = (   0.4583333  -0.2405626   0.0000000), wk =   0.0017361
        k(  368) = (  -0.0208333   0.5412659   0.0000000), wk =   0.0017361
        k(  369) = (  -0.4583333   0.2886751   0.0000000), wk =   0.0017361
        k(  370) = (   0.4791667   0.2525907   0.0000000), wk =   0.0017361
        k(  371) = (  -0.4583333  -0.2886751   0.0000000), wk =   0.0017361
        k(  372) = (   0.4791667  -0.2525907   0.0000000), wk =   0.0017361
        k(  373) = (  -0.0208333   0.5653221   0.0000000), wk =   0.0017361
        k(  374) = (  -0.4791667   0.3007033   0.0000000), wk =   0.0017361
        k(  375) = (   0.5000000   0.2646189   0.0000000), wk =   0.0017361
        k(  376) = (  -0.4791667  -0.3007033   0.0000000), wk =   0.0017361
        k(  377) = (   0.5000000  -0.2646189   0.0000000), wk =   0.0017361
        k(  378) = (  -0.0416667   0.0721688   0.0000000), wk =   0.0017361
        k(  379) = (   0.0833333  -0.0000000   0.0000000), wk =   0.0017361
        k(  380) = (  -0.0416667   0.0962250   0.0000000), wk =   0.0017361
        k(  381) = (  -0.0625000   0.0841969   0.0000000), wk =   0.0017361
        k(  382) = (   0.1041667   0.0120281   0.0000000), wk =   0.0017361
        k(  383) = (  -0.0625000  -0.0841969   0.0000000), wk =   0.0017361
        k(  384) = (   0.1041667  -0.0120281   0.0000000), wk =   0.0017361
        k(  385) = (  -0.0416667   0.1202813   0.0000000), wk =   0.0017361
        k(  386) = (  -0.0833333   0.0962250   0.0000000), wk =   0.0017361
        k(  387) = (   0.1250000   0.0240563   0.0000000), wk =   0.0017361
        k(  388) = (  -0.0833333  -0.0962250   0.0000000), wk =   0.0017361
        k(  389) = (   0.1250000  -0.0240563   0.0000000), wk =   0.0017361
        k(  390) = (  -0.0416667   0.1443376   0.0000000), wk =   0.0017361
        k(  391) = (  -0.1041667   0.1082532   0.0000000), wk =   0.0017361
        k(  392) = (   0.1458333   0.0360844   0.0000000), wk =   0.0017361
        k(  393) = (  -0.1041667  -0.1082532   0.0000000), wk =   0.0017361
        k(  394) = (   0.1458333  -0.0360844   0.0000000), wk =   0.0017361
        k(  395) = (  -0.0416667   0.1683938   0.0000000), wk =   0.0017361
        k(  396) = (  -0.1250000   0.1202813   0.0000000), wk =   0.0017361
        k(  397) = (   0.1666667   0.0481125   0.0000000), wk =   0.0017361
        k(  398) = (  -0.1250000  -0.1202813   0.0000000), wk =   0.0017361
        k(  399) = (   0.1666667  -0.0481125   0.0000000), wk =   0.0017361
        k(  400) = (  -0.0416667   0.1924501   0.0000000), wk =   0.0017361
        k(  401) = (  -0.1458333   0.1323094   0.0000000), wk =   0.0017361
        k(  402) = (   0.1875000   0.0601407   0.0000000), wk =   0.0017361
        k(  403) = (  -0.1458333  -0.1323094   0.0000000), wk =   0.0017361
        k(  404) = (   0.1875000  -0.0601407   0.0000000), wk =   0.0017361
        k(  405) = (  -0.0416667   0.2165064   0.0000000), wk =   0.0017361
        k(  406) = (  -0.1666667   0.1443376   0.0000000), wk =   0.0017361
        k(  407) = (   0.2083333   0.0721688   0.0000000), wk =   0.0017361
        k(  408) = (  -0.1666667  -0.1443376   0.0000000), wk =   0.0017361
        k(  409) = (   0.2083333  -0.0721688   0.0000000), wk =   0.0017361
        k(  410) = (  -0.0416667   0.2405626   0.0000000), wk =   0.0017361
        k(  411) = (  -0.1875000   0.1563657   0.0000000), wk =   0.0017361
        k(  412) = (   0.2291667   0.0841969   0.0000000), wk =   0.0017361
        k(  413) = (  -0.1875000  -0.1563657   0.0000000), wk =   0.0017361
        k(  414) = (   0.2291667  -0.0841969   0.0000000), wk =   0.0017361
        k(  415) = (  -0.0416667   0.2646189   0.0000000), wk =   0.0017361
        k(  416) = (  -0.2083333   0.1683938   0.0000000), wk =   0.0017361
        k(  417) = (   0.2500000   0.0962250   0.0000000), wk =   0.0017361
        k(  418) = (  -0.2083333  -0.1683938   0.0000000), wk =   0.0017361
        k(  419) = (   0.2500000  -0.0962250   0.0000000), wk =   0.0017361
        k(  420) = (  -0.0416667   0.2886751   0.0000000), wk =   0.0017361
        k(  421) = (  -0.2291667   0.1804220   0.0000000), wk =   0.0017361
        k(  422) = (   0.2708333   0.1082532   0.0000000), wk =   0.0017361
        k(  423) = (  -0.2291667  -0.1804220   0.0000000), wk =   0.0017361
        k(  424) = (   0.2708333  -0.1082532   0.0000000), wk =   0.0017361
        k(  425) = (  -0.0416667   0.3127314   0.0000000), wk =   0.0017361
        k(  426) = (  -0.2500000   0.1924501   0.0000000), wk =   0.0017361
        k(  427) = (   0.2916667   0.1202813   0.0000000), wk =   0.0017361
        k(  428) = (  -0.2500000  -0.1924501   0.0000000), wk =   0.0017361
        k(  429) = (   0.2916667  -0.1202813   0.0000000), wk =   0.0017361
        k(  430) = (  -0.0416667   0.3367877   0.0000000), wk =   0.0017361
        k(  431) = (  -0.2708333   0.2044782   0.0000000), wk =   0.0017361
        k(  432) = (   0.3125000   0.1323094   0.0000000), wk =   0.0017361
        k(  433) = (  -0.2708333  -0.2044782   0.0000000), wk =   0.0017361
        k(  434) = (   0.3125000  -0.1323094   0.0000000), wk =   0.0017361
        k(  435) = (  -0.0416667   0.3608439   0.0000000), wk =   0.0017361
        k(  436) = (  -0.2916667   0.2165064   0.0000000), wk =   0.0017361
        k(  437) = (   0.3333333   0.1443376   0.0000000), wk =   0.0017361
        k(  438) = (  -0.2916667  -0.2165064   0.0000000), wk =   0.0017361
        k(  439) = (   0.3333333  -0.1443376   0.0000000), wk =   0.0017361
        k(  440) = (  -0.0416667   0.3849002   0.0000000), wk =   0.0017361
        k(  441) = (  -0.3125000   0.2285345   0.0000000), wk =   0.0017361
        k(  442) = (   0.3541667   0.1563657   0.0000000), wk =   0.0017361
        k(  443) = (  -0.3125000  -0.2285345   0.0000000), wk =   0.0017361
        k(  444) = (   0.3541667  -0.1563657   0.0000000), wk =   0.0017361
        k(  445) = (  -0.0416667   0.4089564   0.0000000), wk =   0.0017361
        k(  446) = (  -0.3333333   0.2405626   0.0000000), wk =   0.0017361
        k(  447) = (   0.3750000   0.1683938   0.0000000), wk =   0.0017361
        k(  448) = (  -0.3333333  -0.2405626   0.0000000), wk =   0.0017361
        k(  449) = (   0.3750000  -0.1683938   0.0000000), wk =   0.0017361
        k(  450) = (  -0.0416667   0.4330127   0.0000000), wk =   0.0017361
        k(  451) = (  -0.3541667   0.2525907   0.0000000), wk =   0.0017361
        k(  452) = (   0.3958333   0.1804220   0.0000000), wk =   0.0017361
        k(  453) = (  -0.3541667  -0.2525907   0.0000000), wk =   0.0017361
        k(  454) = (   0.3958333  -0.1804220   0.0000000), wk =   0.0017361
        k(  455) = (  -0.0416667   0.4570690   0.0000000), wk =   0.0017361
        k(  456) = (  -0.3750000   0.2646189   0.0000000), wk =   0.0017361
        k(  457) = (   0.4166667   0.1924501   0.0000000), wk =   0.0017361
        k(  458) = (  -0.3750000  -0.2646189   0.0000000), wk =   0.0017361
        k(  459) = (   0.4166667  -0.1924501   0.0000000), wk =   0.0017361
        k(  460) = (  -0.0416667   0.4811252   0.0000000), wk =   0.0017361
        k(  461) = (  -0.3958333   0.2766470   0.0000000), wk =   0.0017361
        k(  462) = (   0.4375000   0.2044782   0.0000000), wk =   0.0017361
        k(  463) = (  -0.3958333  -0.2766470   0.0000000), wk =   0.0017361
        k(  464) = (   0.4375000  -0.2044782   0.0000000), wk =   0.0017361
        k(  465) = (  -0.0416667   0.5051815   0.0000000), wk =   0.0017361
        k(  466) = (  -0.4166667   0.2886751   0.0000000), wk =   0.0017361
        k(  467) = (   0.4583333   0.2165064   0.0000000), wk =   0.0017361
        k(  468) = (  -0.4166667  -0.2886751   0.0000000), wk =   0.0017361
        k(  469) = (   0.4583333  -0.2165064   0.0000000), wk =   0.0017361
        k(  470) = (  -0.0416667   0.5292377   0.0000000), wk =   0.0017361
        k(  471) = (  -0.4375000   0.3007033   0.0000000), wk =   0.0017361
        k(  472) = (   0.4791667   0.2285345   0.0000000), wk =   0.0017361
        k(  473) = (  -0.4375000  -0.3007033   0.0000000), wk =   0.0017361
        k(  474) = (   0.4791667  -0.2285345   0.0000000), wk =   0.0017361
        k(  475) = (  -0.0416667   0.5532940   0.0000000), wk =   0.0017361
        k(  476) = (  -0.4583333   0.3127314   0.0000000), wk =   0.0017361
        k(  477) = (   0.5000000   0.2405626   0.0000000), wk =   0.0017361
        k(  478) = (  -0.4583333  -0.3127314   0.0000000), wk =   0.0017361
        k(  479) = (   0.5000000  -0.2405626   0.0000000), wk =   0.0017361
        k(  480) = (  -0.4791667   0.3247595   0.0000000), wk =   0.0017361
        k(  481) = (   0.5208333   0.2525907   0.0000000), wk =   0.0017361
        k(  482) = (  -0.0625000   0.1082532   0.0000000), wk =   0.0017361
        k(  483) = (   0.1250000  -0.0000000   0.0000000), wk =   0.0017361
        k(  484) = (  -0.0625000   0.1323094   0.0000000), wk =   0.0017361
        k(  485) = (  -0.0833333   0.1202813   0.0000000), wk =   0.0017361
        k(  486) = (   0.1458333   0.0120281   0.0000000), wk =   0.0017361
        k(  487) = (  -0.0833333  -0.1202813   0.0000000), wk =   0.0017361
        k(  488) = (   0.1458333  -0.0120281   0.0000000), wk =   0.0017361
        k(  489) = (  -0.0625000   0.1563657   0.0000000), wk =   0.0017361
        k(  490) = (  -0.1041667   0.1323094   0.0000000), wk =   0.0017361
        k(  491) = (   0.1666667   0.0240563   0.0000000), wk =   0.0017361
        k(  492) = (  -0.1041667  -0.1323094   0.0000000), wk =   0.0017361
        k(  493) = (   0.1666667  -0.0240563   0.0000000), wk =   0.0017361
        k(  494) = (  -0.0625000   0.1804220   0.0000000), wk =   0.0017361
        k(  495) = (  -0.1250000   0.1443376   0.0000000), wk =   0.0017361
        k(  496) = (   0.1875000   0.0360844   0.0000000), wk =   0.0017361
        k(  497) = (  -0.1250000  -0.1443376   0.0000000), wk =   0.0017361
        k(  498) = (   0.1875000  -0.0360844   0.0000000), wk =   0.0017361
        k(  499) = (  -0.0625000   0.2044782   0.0000000), wk =   0.0017361
        k(  500) = (  -0.1458333   0.1563657   0.0000000), wk =   0.0017361
        k(  501) = (   0.2083333   0.0481125   0.0000000), wk =   0.0017361
        k(  502) = (  -0.1458333  -0.1563657   0.0000000), wk =   0.0017361
        k(  503) = (   0.2083333  -0.0481125   0.0000000), wk =   0.0017361
        k(  504) = (  -0.0625000   0.2285345   0.0000000), wk =   0.0017361
        k(  505) = (  -0.1666667   0.1683938   0.0000000), wk =   0.0017361
        k(  506) = (   0.2291667   0.0601407   0.0000000), wk =   0.0017361
        k(  507) = (  -0.1666667  -0.1683938   0.0000000), wk =   0.0017361
        k(  508) = (   0.2291667  -0.0601407   0.0000000), wk =   0.0017361
        k(  509) = (  -0.0625000   0.2525907   0.0000000), wk =   0.0017361
        k(  510) = (  -0.1875000   0.1804220   0.0000000), wk =   0.0017361
        k(  511) = (   0.2500000   0.0721688   0.0000000), wk =   0.0017361
        k(  512) = (  -0.1875000  -0.1804220   0.0000000), wk =   0.0017361
        k(  513) = (   0.2500000  -0.0721688   0.0000000), wk =   0.0017361
        k(  514) = (  -0.0625000   0.2766470   0.0000000), wk =   0.0017361
        k(  515) = (  -0.2083333   0.1924501   0.0000000), wk =   0.0017361
        k(  516) = (   0.2708333   0.0841969   0.0000000), wk =   0.0017361
        k(  517) = (  -0.2083333  -0.1924501   0.0000000), wk =   0.0017361
        k(  518) = (   0.2708333  -0.0841969   0.0000000), wk =   0.0017361
        k(  519) = (  -0.0625000   0.3007033   0.0000000), wk =   0.0017361
        k(  520) = (  -0.2291667   0.2044782   0.0000000), wk =   0.0017361
        k(  521) = (   0.2916667   0.0962250   0.0000000), wk =   0.0017361
        k(  522) = (  -0.2291667  -0.2044782   0.0000000), wk =   0.0017361
        k(  523) = (   0.2916667  -0.0962250   0.0000000), wk =   0.0017361
        k(  524) = (  -0.0625000   0.3247595   0.0000000), wk =   0.0017361
        k(  525) = (  -0.2500000   0.2165064   0.0000000), wk =   0.0017361
        k(  526) = (   0.3125000   0.1082532   0.0000000), wk =   0.0017361
        k(  527) = (  -0.2500000  -0.2165064   0.0000000), wk =   0.0017361
        k(  528) = (   0.3125000  -0.1082532   0.0000000), wk =   0.0017361
        k(  529) = (  -0.0625000   0.3488158   0.0000000), wk =   0.0017361
        k(  530) = (  -0.2708333   0.2285345   0.0000000), wk =   0.0017361
        k(  531) = (   0.3333333   0.1202813   0.0000000), wk =   0.0017361
        k(  532) = (  -0.2708333  -0.2285345   0.0000000), wk =   0.0017361
        k(  533) = (   0.3333333  -0.1202813   0.0000000), wk =   0.0017361
        k(  534) = (  -0.0625000   0.3728720   0.0000000), wk =   0.0017361
        k(  535) = (  -0.2916667   0.2405626   0.0000000), wk =   0.0017361
        k(  536) = (   0.3541667   0.1323094   0.0000000), wk =   0.0017361
        k(  537) = (  -0.2916667  -0.2405626   0.0000000), wk =   0.0017361
        k(  538) = (   0.3541667  -0.1323094   0.0000000), wk =   0.0017361
        k(  539) = (  -0.0625000   0.3969283   0.0000000), wk =   0.0017361
        k(  540) = (  -0.3125000   0.2525907   0.0000000), wk =   0.0017361
        k(  541) = (   0.3750000   0.1443376   0.0000000), wk =   0.0017361
        k(  542) = (  -0.3125000  -0.2525907   0.0000000), wk =   0.0017361
        k(  543) = (   0.3750000  -0.1443376   0.0000000), wk =   0.0017361
        k(  544) = (  -0.0625000   0.4209846   0.0000000), wk =   0.0017361
        k(  545) = (  -0.3333333   0.2646189   0.0000000), wk =   0.0017361
        k(  546) = (   0.3958333   0.1563657   0.0000000), wk =   0.0017361
        k(  547) = (  -0.3333333  -0.2646189   0.0000000), wk =   0.0017361
        k(  548) = (   0.3958333  -0.1563657   0.0000000), wk =   0.0017361
        k(  549) = (  -0.0625000   0.4450408   0.0000000), wk =   0.0017361
        k(  550) = (  -0.3541667   0.2766470   0.0000000), wk =   0.0017361
        k(  551) = (   0.4166667   0.1683938   0.0000000), wk =   0.0017361
        k(  552) = (  -0.3541667  -0.2766470   0.0000000), wk =   0.0017361
        k(  553) = (   0.4166667  -0.1683938   0.0000000), wk =   0.0017361
        k(  554) = (  -0.0625000   0.4690971   0.0000000), wk =   0.0017361
        k(  555) = (  -0.3750000   0.2886751   0.0000000), wk =   0.0017361
        k(  556) = (   0.4375000   0.1804220   0.0000000), wk =   0.0017361
        k(  557) = (  -0.3750000  -0.2886751   0.0000000), wk =   0.0017361
        k(  558) = (   0.4375000  -0.1804220   0.0000000), wk =   0.0017361
        k(  559) = (  -0.0625000   0.4931534   0.0000000), wk =   0.0017361
        k(  560) = (  -0.3958333   0.3007033   0.0000000), wk =   0.0017361
        k(  561) = (   0.4583333   0.1924501   0.0000000), wk =   0.0017361
        k(  562) = (  -0.3958333  -0.3007033   0.0000000), wk =   0.0017361
        k(  563) = (   0.4583333  -0.1924501   0.0000000), wk =   0.0017361
        k(  564) = (  -0.0625000   0.5172096   0.0000000), wk =   0.0017361
        k(  565) = (  -0.4166667   0.3127314   0.0000000), wk =   0.0017361
        k(  566) = (   0.4791667   0.2044782   0.0000000), wk =   0.0017361
        k(  567) = (  -0.4166667  -0.3127314   0.0000000), wk =   0.0017361
        k(  568) = (   0.4791667  -0.2044782   0.0000000), wk =   0.0017361
        k(  569) = (  -0.0625000   0.5412659   0.0000000), wk =   0.0017361
        k(  570) = (  -0.4375000   0.3247595   0.0000000), wk =   0.0017361
        k(  571) = (   0.5000000   0.2165064   0.0000000), wk =   0.0017361
        k(  572) = (  -0.4375000  -0.3247595   0.0000000), wk =   0.0017361
        k(  573) = (   0.5000000  -0.2165064   0.0000000), wk =   0.0017361
        k(  574) = (  -0.0625000   0.5653221   0.0000000), wk =   0.0017361
        k(  575) = (  -0.4583333   0.3367877   0.0000000), wk =   0.0017361
        k(  576) = (   0.5208333   0.2285345   0.0000000), wk =   0.0017361
        k(  577) = (  -0.4583333  -0.3367877   0.0000000), wk =   0.0017361
        k(  578) = (   0.5208333  -0.2285345   0.0000000), wk =   0.0017361
        k(  579) = (  -0.0833333   0.1443376   0.0000000), wk =   0.0017361
        k(  580) = (   0.1666667  -0.0000000   0.0000000), wk =   0.0017361
        k(  581) = (  -0.0833333   0.1683938   0.0000000), wk =   0.0017361
        k(  582) = (  -0.1041667   0.1563657   0.0000000), wk =   0.0017361
        k(  583) = (   0.1875000   0.0120281   0.0000000), wk =   0.0017361
        k(  584) = (  -0.1041667  -0.1563657   0.0000000), wk =   0.0017361
        k(  585) = (   0.1875000  -0.0120281   0.0000000), wk =   0.0017361
        k(  586) = (  -0.0833333   0.1924501   0.0000000), wk =   0.0017361
        k(  587) = (  -0.1250000   0.1683938   0.0000000), wk =   0.0017361
        k(  588) = (   0.2083333   0.0240563   0.0000000), wk =   0.0017361
        k(  589) = (  -0.1250000  -0.1683938   0.0000000), wk =   0.0017361
        k(  590) = (   0.2083333  -0.0240563   0.0000000), wk =   0.0017361
        k(  591) = (  -0.0833333   0.2165064   0.0000000), wk =   0.0017361
        k(  592) = (  -0.1458333   0.1804220   0.0000000), wk =   0.0017361
        k(  593) = (   0.2291667   0.0360844   0.0000000), wk =   0.0017361
        k(  594) = (  -0.1458333  -0.1804220   0.0000000), wk =   0.0017361
        k(  595) = (   0.2291667  -0.0360844   0.0000000), wk =   0.0017361
        k(  596) = (  -0.0833333   0.2405626   0.0000000), wk =   0.0017361
        k(  597) = (  -0.1666667   0.1924501   0.0000000), wk =   0.0017361
        k(  598) = (   0.2500000   0.0481125   0.0000000), wk =   0.0017361
        k(  599) = (  -0.1666667  -0.1924501   0.0000000), wk =   0.0017361
        k(  600) = (   0.2500000  -0.0481125   0.0000000), wk =   0.0017361
        k(  601) = (  -0.0833333   0.2646189   0.0000000), wk =   0.0017361
        k(  602) = (  -0.1875000   0.2044782   0.0000000), wk =   0.0017361
        k(  603) = (   0.2708333   0.0601407   0.0000000), wk =   0.0017361
        k(  604) = (  -0.1875000  -0.2044782   0.0000000), wk =   0.0017361
        k(  605) = (   0.2708333  -0.0601407   0.0000000), wk =   0.0017361
        k(  606) = (  -0.0833333   0.2886751   0.0000000), wk =   0.0017361
        k(  607) = (  -0.2083333   0.2165064   0.0000000), wk =   0.0017361
        k(  608) = (   0.2916667   0.0721688   0.0000000), wk =   0.0017361
        k(  609) = (  -0.2083333  -0.2165064   0.0000000), wk =   0.0017361
        k(  610) = (   0.2916667  -0.0721688   0.0000000), wk =   0.0017361
        k(  611) = (  -0.0833333   0.3127314   0.0000000), wk =   0.0017361
        k(  612) = (  -0.2291667   0.2285345   0.0000000), wk =   0.0017361
        k(  613) = (   0.3125000   0.0841969   0.0000000), wk =   0.0017361
        k(  614) = (  -0.2291667  -0.2285345   0.0000000), wk =   0.0017361
        k(  615) = (   0.3125000  -0.0841969   0.0000000), wk =   0.0017361
        k(  616) = (  -0.0833333   0.3367877   0.0000000), wk =   0.0017361
        k(  617) = (  -0.2500000   0.2405626   0.0000000), wk =   0.0017361
        k(  618) = (   0.3333333   0.0962250   0.0000000), wk =   0.0017361
        k(  619) = (  -0.2500000  -0.2405626   0.0000000), wk =   0.0017361
        k(  620) = (   0.3333333  -0.0962250   0.0000000), wk =   0.0017361
        k(  621) = (  -0.0833333   0.3608439   0.0000000), wk =   0.0017361
        k(  622) = (  -0.2708333   0.2525907   0.0000000), wk =   0.0017361
        k(  623) = (   0.3541667   0.1082532   0.0000000), wk =   0.0017361
        k(  624) = (  -0.2708333  -0.2525907   0.0000000), wk =   0.0017361
        k(  625) = (   0.3541667  -0.1082532   0.0000000), wk =   0.0017361
        k(  626) = (  -0.0833333   0.3849002   0.0000000), wk =   0.0017361
        k(  627) = (  -0.2916667   0.2646189   0.0000000), wk =   0.0017361
        k(  628) = (   0.3750000   0.1202813   0.0000000), wk =   0.0017361
        k(  629) = (  -0.2916667  -0.2646189   0.0000000), wk =   0.0017361
        k(  630) = (   0.3750000  -0.1202813   0.0000000), wk =   0.0017361
        k(  631) = (  -0.0833333   0.4089564   0.0000000), wk =   0.0017361
        k(  632) = (  -0.3125000   0.2766470   0.0000000), wk =   0.0017361
        k(  633) = (   0.3958333   0.1323094   0.0000000), wk =   0.0017361
        k(  634) = (  -0.3125000  -0.2766470   0.0000000), wk =   0.0017361
        k(  635) = (   0.3958333  -0.1323094   0.0000000), wk =   0.0017361
        k(  636) = (  -0.0833333   0.4330127   0.0000000), wk =   0.0017361
        k(  637) = (  -0.3333333   0.2886751   0.0000000), wk =   0.0017361
        k(  638) = (   0.4166667   0.1443376   0.0000000), wk =   0.0017361
        k(  639) = (  -0.3333333  -0.2886751   0.0000000), wk =   0.0017361
        k(  640) = (   0.4166667  -0.1443376   0.0000000), wk =   0.0017361
        k(  641) = (  -0.0833333   0.4570690   0.0000000), wk =   0.0017361
        k(  642) = (  -0.3541667   0.3007033   0.0000000), wk =   0.0017361
        k(  643) = (   0.4375000   0.1563657   0.0000000), wk =   0.0017361
        k(  644) = (  -0.3541667  -0.3007033   0.0000000), wk =   0.0017361
        k(  645) = (   0.4375000  -0.1563657   0.0000000), wk =   0.0017361
        k(  646) = (  -0.0833333   0.4811252   0.0000000), wk =   0.0017361
        k(  647) = (  -0.3750000   0.3127314   0.0000000), wk =   0.0017361
        k(  648) = (   0.4583333   0.1683938   0.0000000), wk =   0.0017361
        k(  649) = (  -0.3750000  -0.3127314   0.0000000), wk =   0.0017361
        k(  650) = (   0.4583333  -0.1683938   0.0000000), wk =   0.0017361
        k(  651) = (  -0.0833333   0.5051815   0.0000000), wk =   0.0017361
        k(  652) = (  -0.3958333   0.3247595   0.0000000), wk =   0.0017361
        k(  653) = (   0.4791667   0.1804220   0.0000000), wk =   0.0017361
        k(  654) = (  -0.3958333  -0.3247595   0.0000000), wk =   0.0017361
        k(  655) = (   0.4791667  -0.1804220   0.0000000), wk =   0.0017361
        k(  656) = (  -0.0833333   0.5292377   0.0000000), wk =   0.0017361
        k(  657) = (  -0.4166667   0.3367877   0.0000000), wk =   0.0017361
        k(  658) = (   0.5000000   0.1924501   0.0000000), wk =   0.0017361
        k(  659) = (  -0.4166667  -0.3367877   0.0000000), wk =   0.0017361
        k(  660) = (   0.5000000  -0.1924501   0.0000000), wk =   0.0017361
        k(  661) = (  -0.0833333   0.5532940   0.0000000), wk =   0.0017361
        k(  662) = (  -0.4375000   0.3488158   0.0000000), wk =   0.0017361
        k(  663) = (   0.5208333   0.2044782   0.0000000), wk =   0.0017361
        k(  664) = (  -0.4375000  -0.3488158   0.0000000), wk =   0.0017361
        k(  665) = (   0.5208333  -0.2044782   0.0000000), wk =   0.0017361
        k(  666) = (  -0.4583333   0.3608439   0.0000000), wk =   0.0017361
        k(  667) = (   0.5416667   0.2165064   0.0000000), wk =   0.0017361
        k(  668) = (  -0.1041667   0.1804220   0.0000000), wk =   0.0017361
        k(  669) = (   0.2083333  -0.0000000   0.0000000), wk =   0.0017361
        k(  670) = (  -0.1041667   0.2044782   0.0000000), wk =   0.0017361
        k(  671) = (  -0.1250000   0.1924501   0.0000000), wk =   0.0017361
        k(  672) = (   0.2291667   0.0120281   0.0000000), wk =   0.0017361
        k(  673) = (  -0.1250000  -0.1924501   0.0000000), wk =   0.0017361
        k(  674) = (   0.2291667  -0.0120281   0.0000000), wk =   0.0017361
        k(  675) = (  -0.1041667   0.2285345   0.0000000), wk =   0.0017361
        k(  676) = (  -0.1458333   0.2044782   0.0000000), wk =   0.0017361
        k(  677) = (   0.2500000   0.0240563   0.0000000), wk =   0.0017361
        k(  678) = (  -0.1458333  -0.2044782   0.0000000), wk =   0.0017361
        k(  679) = (   0.2500000  -0.0240563   0.0000000), wk =   0.0017361
        k(  680) = (  -0.1041667   0.2525907   0.0000000), wk =   0.0017361
        k(  681) = (  -0.1666667   0.2165064   0.0000000), wk =   0.0017361
        k(  682) = (   0.2708333   0.0360844   0.0000000), wk =   0.0017361
        k(  683) = (  -0.1666667  -0.2165064   0.0000000), wk =   0.0017361
        k(  684) = (   0.2708333  -0.0360844   0.0000000), wk =   0.0017361
        k(  685) = (  -0.1041667   0.2766470   0.0000000), wk =   0.0017361
        k(  686) = (  -0.1875000   0.2285345   0.0000000), wk =   0.0017361
        k(  687) = (   0.2916667   0.0481125   0.0000000), wk =   0.0017361
        k(  688) = (  -0.1875000  -0.2285345   0.0000000), wk =   0.0017361
        k(  689) = (   0.2916667  -0.0481125   0.0000000), wk =   0.0017361
        k(  690) = (  -0.1041667   0.3007033   0.0000000), wk =   0.0017361
        k(  691) = (  -0.2083333   0.2405626   0.0000000), wk =   0.0017361
        k(  692) = (   0.3125000   0.0601407   0.0000000), wk =   0.0017361
        k(  693) = (  -0.2083333  -0.2405626   0.0000000), wk =   0.0017361
        k(  694) = (   0.3125000  -0.0601407   0.0000000), wk =   0.0017361
        k(  695) = (  -0.1041667   0.3247595   0.0000000), wk =   0.0017361
        k(  696) = (  -0.2291667   0.2525907   0.0000000), wk =   0.0017361
        k(  697) = (   0.3333333   0.0721688   0.0000000), wk =   0.0017361
        k(  698) = (  -0.2291667  -0.2525907   0.0000000), wk =   0.0017361
        k(  699) = (   0.3333333  -0.0721688   0.0000000), wk =   0.0017361
        k(  700) = (  -0.1041667   0.3488158   0.0000000), wk =   0.0017361
        k(  701) = (  -0.2500000   0.2646189   0.0000000), wk =   0.0017361
        k(  702) = (   0.3541667   0.0841969   0.0000000), wk =   0.0017361
        k(  703) = (  -0.2500000  -0.2646189   0.0000000), wk =   0.0017361
        k(  704) = (   0.3541667  -0.0841969   0.0000000), wk =   0.0017361
        k(  705) = (  -0.1041667   0.3728720   0.0000000), wk =   0.0017361
        k(  706) = (  -0.2708333   0.2766470   0.0000000), wk =   0.0017361
        k(  707) = (   0.3750000   0.0962250   0.0000000), wk =   0.0017361
        k(  708) = (  -0.2708333  -0.2766470   0.0000000), wk =   0.0017361
        k(  709) = (   0.3750000  -0.0962250   0.0000000), wk =   0.0017361
        k(  710) = (  -0.1041667   0.3969283   0.0000000), wk =   0.0017361
        k(  711) = (  -0.2916667   0.2886751   0.0000000), wk =   0.0017361
        k(  712) = (   0.3958333   0.1082532   0.0000000), wk =   0.0017361
        k(  713) = (  -0.2916667  -0.2886751   0.0000000), wk =   0.0017361
        k(  714) = (   0.3958333  -0.1082532   0.0000000), wk =   0.0017361
        k(  715) = (  -0.1041667   0.4209846   0.0000000), wk =   0.0017361
        k(  716) = (  -0.3125000   0.3007033   0.0000000), wk =   0.0017361
        k(  717) = (   0.4166667   0.1202813   0.0000000), wk =   0.0017361
        k(  718) = (  -0.3125000  -0.3007033   0.0000000), wk =   0.0017361
        k(  719) = (   0.4166667  -0.1202813   0.0000000), wk =   0.0017361
        k(  720) = (  -0.1041667   0.4450408   0.0000000), wk =   0.0017361
        k(  721) = (  -0.3333333   0.3127314   0.0000000), wk =   0.0017361
        k(  722) = (   0.4375000   0.1323094   0.0000000), wk =   0.0017361
        k(  723) = (  -0.3333333  -0.3127314   0.0000000), wk =   0.0017361
        k(  724) = (   0.4375000  -0.1323094   0.0000000), wk =   0.0017361
        k(  725) = (  -0.1041667   0.4690971   0.0000000), wk =   0.0017361
        k(  726) = (  -0.3541667   0.3247595   0.0000000), wk =   0.0017361
        k(  727) = (   0.4583333   0.1443376   0.0000000), wk =   0.0017361
        k(  728) = (  -0.3541667  -0.3247595   0.0000000), wk =   0.0017361
        k(  729) = (   0.4583333  -0.1443376   0.0000000), wk =   0.0017361
        k(  730) = (  -0.1041667   0.4931534   0.0000000), wk =   0.0017361
        k(  731) = (  -0.3750000   0.3367877   0.0000000), wk =   0.0017361
        k(  732) = (   0.4791667   0.1563657   0.0000000), wk =   0.0017361
        k(  733) = (  -0.3750000  -0.3367877   0.0000000), wk =   0.0017361
        k(  734) = (   0.4791667  -0.1563657   0.0000000), wk =   0.0017361
        k(  735) = (  -0.1041667   0.5172096   0.0000000), wk =   0.0017361
        k(  736) = (  -0.3958333   0.3488158   0.0000000), wk =   0.0017361
        k(  737) = (   0.5000000   0.1683938   0.0000000), wk =   0.0017361
        k(  738) = (  -0.3958333  -0.3488158   0.0000000), wk =   0.0017361
        k(  739) = (   0.5000000  -0.1683938   0.0000000), wk =   0.0017361
        k(  740) = (  -0.1041667   0.5412659   0.0000000), wk =   0.0017361
        k(  741) = (  -0.4166667   0.3608439   0.0000000), wk =   0.0017361
        k(  742) = (   0.5208333   0.1804220   0.0000000), wk =   0.0017361
        k(  743) = (  -0.4166667  -0.3608439   0.0000000), wk =   0.0017361
        k(  744) = (   0.5208333  -0.1804220   0.0000000), wk =   0.0017361
        k(  745) = (  -0.1041667   0.5653221   0.0000000), wk =   0.0017361
        k(  746) = (  -0.4375000   0.3728720   0.0000000), wk =   0.0017361
        k(  747) = (   0.5416667   0.1924501   0.0000000), wk =   0.0017361
        k(  748) = (  -0.4375000  -0.3728720   0.0000000), wk =   0.0017361
        k(  749) = (   0.5416667  -0.1924501   0.0000000), wk =   0.0017361
        k(  750) = (  -0.1250000   0.2165064   0.0000000), wk =   0.0017361
        k(  751) = (   0.2500000  -0.0000000   0.0000000), wk =   0.0017361
        k(  752) = (  -0.1250000   0.2405626   0.0000000), wk =   0.0017361
        k(  753) = (  -0.1458333   0.2285345   0.0000000), wk =   0.0017361
        k(  754) = (   0.2708333   0.0120281   0.0000000), wk =   0.0017361
        k(  755) = (  -0.1458333  -0.2285345   0.0000000), wk =   0.0017361
        k(  756) = (   0.2708333  -0.0120281   0.0000000), wk =   0.0017361
        k(  757) = (  -0.1250000   0.2646189   0.0000000), wk =   0.0017361
        k(  758) = (  -0.1666667   0.2405626   0.0000000), wk =   0.0017361
        k(  759) = (   0.2916667   0.0240563   0.0000000), wk =   0.0017361
        k(  760) = (  -0.1666667  -0.2405626   0.0000000), wk =   0.0017361
        k(  761) = (   0.2916667  -0.0240563   0.0000000), wk =   0.0017361
        k(  762) = (  -0.1250000   0.2886751   0.0000000), wk =   0.0017361
        k(  763) = (  -0.1875000   0.2525907   0.0000000), wk =   0.0017361
        k(  764) = (   0.3125000   0.0360844   0.0000000), wk =   0.0017361
        k(  765) = (  -0.1875000  -0.2525907   0.0000000), wk =   0.0017361
        k(  766) = (   0.3125000  -0.0360844   0.0000000), wk =   0.0017361
        k(  767) = (  -0.1250000   0.3127314   0.0000000), wk =   0.0017361
        k(  768) = (  -0.2083333   0.2646189   0.0000000), wk =   0.0017361
        k(  769) = (   0.3333333   0.0481125   0.0000000), wk =   0.0017361
        k(  770) = (  -0.2083333  -0.2646189   0.0000000), wk =   0.0017361
        k(  771) = (   0.3333333  -0.0481125   0.0000000), wk =   0.0017361
        k(  772) = (  -0.1250000   0.3367877   0.0000000), wk =   0.0017361
        k(  773) = (  -0.2291667   0.2766470   0.0000000), wk =   0.0017361
        k(  774) = (   0.3541667   0.0601407   0.0000000), wk =   0.0017361
        k(  775) = (  -0.2291667  -0.2766470   0.0000000), wk =   0.0017361
        k(  776) = (   0.3541667  -0.0601407   0.0000000), wk =   0.0017361
        k(  777) = (  -0.1250000   0.3608439   0.0000000), wk =   0.0017361
        k(  778) = (  -0.2500000   0.2886751   0.0000000), wk =   0.0017361
        k(  779) = (   0.3750000   0.0721688   0.0000000), wk =   0.0017361
        k(  780) = (  -0.2500000  -0.2886751   0.0000000), wk =   0.0017361
        k(  781) = (   0.3750000  -0.0721688   0.0000000), wk =   0.0017361
        k(  782) = (  -0.1250000   0.3849002   0.0000000), wk =   0.0017361
        k(  783) = (  -0.2708333   0.3007033   0.0000000), wk =   0.0017361
        k(  784) = (   0.3958333   0.0841969   0.0000000), wk =   0.0017361
        k(  785) = (  -0.2708333  -0.3007033   0.0000000), wk =   0.0017361
        k(  786) = (   0.3958333  -0.0841969   0.0000000), wk =   0.0017361
        k(  787) = (  -0.1250000   0.4089564   0.0000000), wk =   0.0017361
        k(  788) = (  -0.2916667   0.3127314   0.0000000), wk =   0.0017361
        k(  789) = (   0.4166667   0.0962250   0.0000000), wk =   0.0017361
        k(  790) = (  -0.2916667  -0.3127314   0.0000000), wk =   0.0017361
        k(  791) = (   0.4166667  -0.0962250   0.0000000), wk =   0.0017361
        k(  792) = (  -0.1250000   0.4330127   0.0000000), wk =   0.0017361
        k(  793) = (  -0.3125000   0.3247595   0.0000000), wk =   0.0017361
        k(  794) = (   0.4375000   0.1082532   0.0000000), wk =   0.0017361
        k(  795) = (  -0.3125000  -0.3247595   0.0000000), wk =   0.0017361
        k(  796) = (   0.4375000  -0.1082532   0.0000000), wk =   0.0017361
        k(  797) = (  -0.1250000   0.4570690   0.0000000), wk =   0.0017361
        k(  798) = (  -0.3333333   0.3367877   0.0000000), wk =   0.0017361
        k(  799) = (   0.4583333   0.1202813   0.0000000), wk =   0.0017361
        k(  800) = (  -0.3333333  -0.3367877   0.0000000), wk =   0.0017361
        k(  801) = (   0.4583333  -0.1202813   0.0000000), wk =   0.0017361
        k(  802) = (  -0.1250000   0.4811252   0.0000000), wk =   0.0017361
        k(  803) = (  -0.3541667   0.3488158   0.0000000), wk =   0.0017361
        k(  804) = (   0.4791667   0.1323094   0.0000000), wk =   0.0017361
        k(  805) = (  -0.3541667  -0.3488158   0.0000000), wk =   0.0017361
        k(  806) = (   0.4791667  -0.1323094   0.0000000), wk =   0.0017361
        k(  807) = (  -0.1250000   0.5051815   0.0000000), wk =   0.0017361
        k(  808) = (  -0.3750000   0.3608439   0.0000000), wk =   0.0017361
        k(  809) = (   0.5000000   0.1443376   0.0000000), wk =   0.0017361
        k(  810) = (  -0.3750000  -0.3608439   0.0000000), wk =   0.0017361
        k(  811) = (   0.5000000  -0.1443376   0.0000000), wk =   0.0017361
        k(  812) = (  -0.1250000   0.5292377   0.0000000), wk =   0.0017361
        k(  813) = (  -0.3958333   0.3728720   0.0000000), wk =   0.0017361
        k(  814) = (   0.5208333   0.1563657   0.0000000), wk =   0.0017361
        k(  815) = (  -0.3958333  -0.3728720   0.0000000), wk =   0.0017361
        k(  816) = (   0.5208333  -0.1563657   0.0000000), wk =   0.0017361
        k(  817) = (  -0.1250000   0.5532940   0.0000000), wk =   0.0017361
        k(  818) = (  -0.4166667   0.3849002   0.0000000), wk =   0.0017361
        k(  819) = (   0.5416667   0.1683938   0.0000000), wk =   0.0017361
        k(  820) = (  -0.4166667  -0.3849002   0.0000000), wk =   0.0017361
        k(  821) = (   0.5416667  -0.1683938   0.0000000), wk =   0.0017361
        k(  822) = (  -0.4375000   0.3969283   0.0000000), wk =   0.0017361
        k(  823) = (   0.5625000   0.1804220   0.0000000), wk =   0.0017361
        k(  824) = (  -0.1458333   0.2525907   0.0000000), wk =   0.0017361
        k(  825) = (   0.2916667  -0.0000000   0.0000000), wk =   0.0017361
        k(  826) = (  -0.1458333   0.2766470   0.0000000), wk =   0.0017361
        k(  827) = (  -0.1666667   0.2646189   0.0000000), wk =   0.0017361
        k(  828) = (   0.3125000   0.0120281   0.0000000), wk =   0.0017361
        k(  829) = (  -0.1666667  -0.2646189   0.0000000), wk =   0.0017361
        k(  830) = (   0.3125000  -0.0120281   0.0000000), wk =   0.0017361
        k(  831) = (  -0.1458333   0.3007033   0.0000000), wk =   0.0017361
        k(  832) = (  -0.1875000   0.2766470   0.0000000), wk =   0.0017361
        k(  833) = (   0.3333333   0.0240563   0.0000000), wk =   0.0017361
        k(  834) = (  -0.1875000  -0.2766470   0.0000000), wk =   0.0017361
        k(  835) = (   0.3333333  -0.0240563   0.0000000), wk =   0.0017361
        k(  836) = (  -0.1458333   0.3247595   0.0000000), wk =   0.0017361
        k(  837) = (  -0.2083333   0.2886751   0.0000000), wk =   0.0017361
        k(  838) = (   0.3541667   0.0360844   0.0000000), wk =   0.0017361
        k(  839) = (  -0.2083333  -0.2886751   0.0000000), wk =   0.0017361
        k(  840) = (   0.3541667  -0.0360844   0.0000000), wk =   0.0017361
        k(  841) = (  -0.1458333   0.3488158   0.0000000), wk =   0.0017361
        k(  842) = (  -0.2291667   0.3007033   0.0000000), wk =   0.0017361
        k(  843) = (   0.3750000   0.0481125   0.0000000), wk =   0.0017361
        k(  844) = (  -0.2291667  -0.3007033   0.0000000), wk =   0.0017361
        k(  845) = (   0.3750000  -0.0481125   0.0000000), wk =   0.0017361
        k(  846) = (  -0.1458333   0.3728720   0.0000000), wk =   0.0017361
        k(  847) = (  -0.2500000   0.3127314   0.0000000), wk =   0.0017361
        k(  848) = (   0.3958333   0.0601407   0.0000000), wk =   0.0017361
        k(  849) = (  -0.2500000  -0.3127314   0.0000000), wk =   0.0017361
        k(  850) = (   0.3958333  -0.0601407   0.0000000), wk =   0.0017361
        k(  851) = (  -0.1458333   0.3969283   0.0000000), wk =   0.0017361
        k(  852) = (  -0.2708333   0.3247595   0.0000000), wk =   0.0017361
        k(  853) = (   0.4166667   0.0721688   0.0000000), wk =   0.0017361
        k(  854) = (  -0.2708333  -0.3247595   0.0000000), wk =   0.0017361
        k(  855) = (   0.4166667  -0.0721688   0.0000000), wk =   0.0017361
        k(  856) = (  -0.1458333   0.4209846   0.0000000), wk =   0.0017361
        k(  857) = (  -0.2916667   0.3367877   0.0000000), wk =   0.0017361
        k(  858) = (   0.4375000   0.0841969   0.0000000), wk =   0.0017361
        k(  859) = (  -0.2916667  -0.3367877   0.0000000), wk =   0.0017361
        k(  860) = (   0.4375000  -0.0841969   0.0000000), wk =   0.0017361
        k(  861) = (  -0.1458333   0.4450408   0.0000000), wk =   0.0017361
        k(  862) = (  -0.3125000   0.3488158   0.0000000), wk =   0.0017361
        k(  863) = (   0.4583333   0.0962250   0.0000000), wk =   0.0017361
        k(  864) = (  -0.3125000  -0.3488158   0.0000000), wk =   0.0017361
        k(  865) = (   0.4583333  -0.0962250   0.0000000), wk =   0.0017361
        k(  866) = (  -0.1458333   0.4690971   0.0000000), wk =   0.0017361
        k(  867) = (  -0.3333333   0.3608439   0.0000000), wk =   0.0017361
        k(  868) = (   0.4791667   0.1082532   0.0000000), wk =   0.0017361
        k(  869) = (  -0.3333333  -0.3608439   0.0000000), wk =   0.0017361
        k(  870) = (   0.4791667  -0.1082532   0.0000000), wk =   0.0017361
        k(  871) = (  -0.1458333   0.4931534   0.0000000), wk =   0.0017361
        k(  872) = (  -0.3541667   0.3728720   0.0000000), wk =   0.0017361
        k(  873) = (   0.5000000   0.1202813   0.0000000), wk =   0.0017361
        k(  874) = (  -0.3541667  -0.3728720   0.0000000), wk =   0.0017361
        k(  875) = (   0.5000000  -0.1202813   0.0000000), wk =   0.0017361
        k(  876) = (  -0.1458333   0.5172096   0.0000000), wk =   0.0017361
        k(  877) = (  -0.3750000   0.3849002   0.0000000), wk =   0.0017361
        k(  878) = (   0.5208333   0.1323094   0.0000000), wk =   0.0017361
        k(  879) = (  -0.3750000  -0.3849002   0.0000000), wk =   0.0017361
        k(  880) = (   0.5208333  -0.1323094   0.0000000), wk =   0.0017361
        k(  881) = (  -0.1458333   0.5412659   0.0000000), wk =   0.0017361
        k(  882) = (  -0.3958333   0.3969283   0.0000000), wk =   0.0017361
        k(  883) = (   0.5416667   0.1443376   0.0000000), wk =   0.0017361
        k(  884) = (  -0.3958333  -0.3969283   0.0000000), wk =   0.0017361
        k(  885) = (   0.5416667  -0.1443376   0.0000000), wk =   0.0017361
        k(  886) = (  -0.1458333   0.5653221   0.0000000), wk =   0.0017361
        k(  887) = (  -0.4166667   0.4089564   0.0000000), wk =   0.0017361
        k(  888) = (   0.5625000   0.1563657   0.0000000), wk =   0.0017361
        k(  889) = (  -0.4166667  -0.4089564   0.0000000), wk =   0.0017361
        k(  890) = (   0.5625000  -0.1563657   0.0000000), wk =   0.0017361
        k(  891) = (  -0.1666667   0.2886751   0.0000000), wk =   0.0017361
        k(  892) = (   0.3333333  -0.0000000   0.0000000), wk =   0.0017361
        k(  893) = (  -0.1666667   0.3127314   0.0000000), wk =   0.0017361
        k(  894) = (  -0.1875000   0.3007033   0.0000000), wk =   0.0017361
        k(  895) = (   0.3541667   0.0120281   0.0000000), wk =   0.0017361
        k(  896) = (  -0.1875000  -0.3007033   0.0000000), wk =   0.0017361
        k(  897) = (   0.3541667  -0.0120281   0.0000000), wk =   0.0017361
        k(  898) = (  -0.1666667   0.3367877   0.0000000), wk =   0.0017361
        k(  899) = (  -0.2083333   0.3127314   0.0000000), wk =   0.0017361
        k(  900) = (   0.3750000   0.0240563   0.0000000), wk =   0.0017361
        k(  901) = (  -0.2083333  -0.3127314   0.0000000), wk =   0.0017361
        k(  902) = (   0.3750000  -0.0240563   0.0000000), wk =   0.0017361
        k(  903) = (  -0.1666667   0.3608439   0.0000000), wk =   0.0017361
        k(  904) = (  -0.2291667   0.3247595   0.0000000), wk =   0.0017361
        k(  905) = (   0.3958333   0.0360844   0.0000000), wk =   0.0017361
        k(  906) = (  -0.2291667  -0.3247595   0.0000000), wk =   0.0017361
        k(  907) = (   0.3958333  -0.0360844   0.0000000), wk =   0.0017361
        k(  908) = (  -0.1666667   0.3849002   0.0000000), wk =   0.0017361
        k(  909) = (  -0.2500000   0.3367877   0.0000000), wk =   0.0017361
        k(  910) = (   0.4166667   0.0481125   0.0000000), wk =   0.0017361
        k(  911) = (  -0.2500000  -0.3367877   0.0000000), wk =   0.0017361
        k(  912) = (   0.4166667  -0.0481125   0.0000000), wk =   0.0017361
        k(  913) = (  -0.1666667   0.4089564   0.0000000), wk =   0.0017361
        k(  914) = (  -0.2708333   0.3488158   0.0000000), wk =   0.0017361
        k(  915) = (   0.4375000   0.0601407   0.0000000), wk =   0.0017361
        k(  916) = (  -0.2708333  -0.3488158   0.0000000), wk =   0.0017361
        k(  917) = (   0.4375000  -0.0601407   0.0000000), wk =   0.0017361
        k(  918) = (  -0.1666667   0.4330127   0.0000000), wk =   0.0017361
        k(  919) = (  -0.2916667   0.3608439   0.0000000), wk =   0.0017361
        k(  920) = (   0.4583333   0.0721688   0.0000000), wk =   0.0017361
        k(  921) = (  -0.2916667  -0.3608439   0.0000000), wk =   0.0017361
        k(  922) = (   0.4583333  -0.0721688   0.0000000), wk =   0.0017361
        k(  923) = (  -0.1666667   0.4570690   0.0000000), wk =   0.0017361
        k(  924) = (  -0.3125000   0.3728720   0.0000000), wk =   0.0017361
        k(  925) = (   0.4791667   0.0841969   0.0000000), wk =   0.0017361
        k(  926) = (  -0.3125000  -0.3728720   0.0000000), wk =   0.0017361
        k(  927) = (   0.4791667  -0.0841969   0.0000000), wk =   0.0017361
        k(  928) = (  -0.1666667   0.4811252   0.0000000), wk =   0.0017361
        k(  929) = (  -0.3333333   0.3849002   0.0000000), wk =   0.0017361
        k(  930) = (   0.5000000   0.0962250   0.0000000), wk =   0.0017361
        k(  931) = (  -0.3333333  -0.3849002   0.0000000), wk =   0.0017361
        k(  932) = (   0.5000000  -0.0962250   0.0000000), wk =   0.0017361
        k(  933) = (  -0.1666667   0.5051815   0.0000000), wk =   0.0017361
        k(  934) = (  -0.3541667   0.3969283   0.0000000), wk =   0.0017361
        k(  935) = (   0.5208333   0.1082532   0.0000000), wk =   0.0017361
        k(  936) = (  -0.3541667  -0.3969283   0.0000000), wk =   0.0017361
        k(  937) = (   0.5208333  -0.1082532   0.0000000), wk =   0.0017361
        k(  938) = (  -0.1666667   0.5292377   0.0000000), wk =   0.0017361
        k(  939) = (  -0.3750000   0.4089564   0.0000000), wk =   0.0017361
        k(  940) = (   0.5416667   0.1202813   0.0000000), wk =   0.0017361
        k(  941) = (  -0.3750000  -0.4089564   0.0000000), wk =   0.0017361
        k(  942) = (   0.5416667  -0.1202813   0.0000000), wk =   0.0017361
        k(  943) = (  -0.1666667   0.5532940   0.0000000), wk =   0.0017361
        k(  944) = (  -0.3958333   0.4209846   0.0000000), wk =   0.0017361
        k(  945) = (   0.5625000   0.1323094   0.0000000), wk =   0.0017361
        k(  946) = (  -0.3958333  -0.4209846   0.0000000), wk =   0.0017361
        k(  947) = (   0.5625000  -0.1323094   0.0000000), wk =   0.0017361
        k(  948) = (  -0.4166667   0.4330127   0.0000000), wk =   0.0017361
        k(  949) = (   0.5833333   0.1443376   0.0000000), wk =   0.0017361
        k(  950) = (  -0.1875000   0.3247595   0.0000000), wk =   0.0017361
        k(  951) = (   0.3750000  -0.0000000   0.0000000), wk =   0.0017361
        k(  952) = (  -0.1875000   0.3488158   0.0000000), wk =   0.0017361
        k(  953) = (  -0.2083333   0.3367877   0.0000000), wk =   0.0017361
        k(  954) = (   0.3958333   0.0120281   0.0000000), wk =   0.0017361
        k(  955) = (  -0.2083333  -0.3367877   0.0000000), wk =   0.0017361
        k(  956) = (   0.3958333  -0.0120281   0.0000000), wk =   0.0017361
        k(  957) = (  -0.1875000   0.3728720   0.0000000), wk =   0.0017361
        k(  958) = (  -0.2291667   0.3488158   0.0000000), wk =   0.0017361
        k(  959) = (   0.4166667   0.0240563   0.0000000), wk =   0.0017361
        k(  960) = (  -0.2291667  -0.3488158   0.0000000), wk =   0.0017361
        k(  961) = (   0.4166667  -0.0240563   0.0000000), wk =   0.0017361
        k(  962) = (  -0.1875000   0.3969283   0.0000000), wk =   0.0017361
        k(  963) = (  -0.2500000   0.3608439   0.0000000), wk =   0.0017361
        k(  964) = (   0.4375000   0.0360844   0.0000000), wk =   0.0017361
        k(  965) = (  -0.2500000  -0.3608439   0.0000000), wk =   0.0017361
        k(  966) = (   0.4375000  -0.0360844   0.0000000), wk =   0.0017361
        k(  967) = (  -0.1875000   0.4209846   0.0000000), wk =   0.0017361
        k(  968) = (  -0.2708333   0.3728720   0.0000000), wk =   0.0017361
        k(  969) = (   0.4583333   0.0481125   0.0000000), wk =   0.0017361
        k(  970) = (  -0.2708333  -0.3728720   0.0000000), wk =   0.0017361
        k(  971) = (   0.4583333  -0.0481125   0.0000000), wk =   0.0017361
        k(  972) = (  -0.1875000   0.4450408   0.0000000), wk =   0.0017361
        k(  973) = (  -0.2916667   0.3849002   0.0000000), wk =   0.0017361
        k(  974) = (   0.4791667   0.0601407   0.0000000), wk =   0.0017361
        k(  975) = (  -0.2916667  -0.3849002   0.0000000), wk =   0.0017361
        k(  976) = (   0.4791667  -0.0601407   0.0000000), wk =   0.0017361
        k(  977) = (  -0.1875000   0.4690971   0.0000000), wk =   0.0017361
        k(  978) = (  -0.3125000   0.3969283   0.0000000), wk =   0.0017361
        k(  979) = (   0.5000000   0.0721688   0.0000000), wk =   0.0017361
        k(  980) = (  -0.3125000  -0.3969283   0.0000000), wk =   0.0017361
        k(  981) = (   0.5000000  -0.0721688   0.0000000), wk =   0.0017361
        k(  982) = (  -0.1875000   0.4931534   0.0000000), wk =   0.0017361
        k(  983) = (  -0.3333333   0.4089564   0.0000000), wk =   0.0017361
        k(  984) = (   0.5208333   0.0841969   0.0000000), wk =   0.0017361
        k(  985) = (  -0.3333333  -0.4089564   0.0000000), wk =   0.0017361
        k(  986) = (   0.5208333  -0.0841969   0.0000000), wk =   0.0017361
        k(  987) = (  -0.1875000   0.5172096   0.0000000), wk =   0.0017361
        k(  988) = (  -0.3541667   0.4209846   0.0000000), wk =   0.0017361
        k(  989) = (   0.5416667   0.0962250   0.0000000), wk =   0.0017361
[...]

          k = 0.6042-0.0842 0.0000 (  3013 PWs)   bands (ev):

   -14.0263 -13.9580 -12.9953 -12.9358  -9.8807  -9.8379  -1.9981  -1.5046

     occupation numbers 
     1.0000   1.0000   1.0000   1.0000   1.0000   1.0000   1.0000   1.0000

          k =-0.2500 0.4330 0.0000 (  3033 PWs)   bands (ev):

   -15.7392 -15.6543 -11.0339 -10.9856  -9.4624  -9.4261  -3.5405  -2.9004

     occupation numbers 
     1.0000   1.0000   1.0000   1.0000   1.0000   1.0000   1.0000   1.0000

          k = 0.5000-0.0000 0.0000 (  3033 PWs)   bands (ev):

   -15.7390 -15.6545 -11.0367 -10.9814  -9.4658  -9.4243  -3.5368  -2.9050

     occupation numbers 
     1.0000   1.0000   1.0000   1.0000   1.0000   1.0000   1.0000   1.0000

          k =-0.2500 0.4571 0.0000 (  3025 PWs)   bands (ev):

   -15.3946 -15.3119 -11.3563 -11.3058  -9.7226  -9.6848  -3.1735  -2.5496

     occupation numbers 
     1.0000   1.0000   1.0000   1.0000   1.0000   1.0000   1.0000   1.0000

          k =-0.2708 0.4450 0.0000 (  3025 PWs)   bands (ev):

   -15.3946 -15.3120 -11.3561 -11.3057  -9.7228  -9.6849  -3.1722  -2.5514

     occupation numbers 
     1.0000   1.0000   1.0000   1.0000   1.0000   1.0000   1.0000   1.0000

          k = 0.5208 0.0120 0.0000 (  3025 PWs)   bands (ev):

   -15.3943 -15.3122 -11.3589 -11.3016  -9.7258  -9.6831  -3.1684  -2.5560

     occupation numbers 
     1.0000   1.0000   1.0000   1.0000   1.0000   1.0000   1.0000   1.0000

          k =-0.2708-0.4450 0.0000 (  3025 PWs)   bands (ev):

   -15.3946 -15.3120 -11.3561 -11.3057  -9.7228  -9.6849  -3.1722  -2.5514

     occupation numbers 
     1.0000   1.0000   1.0000   1.0000   1.0000   1.0000   1.0000   1.0000

          k = 0.5208-0.0120 0.0000 (  3025 PWs)   bands (ev):

   -15.3943 -15.3122 -11.3589 -11.3016  -9.7258  -9.6831  -3.1684  -2.5560

     occupation numbers 
     1.0000   1.0000   1.0000   1.0000   1.0000   1.0000   1.0000   1.0000

          k =-0.2500 0.4811 0.0000 (  3019 PWs)   bands (ev):

   -15.0389 -14.9583 -11.7093 -11.6560  -9.9238  -9.8844  -2.8065  -2.1993

     occupation numbers 
     1.0000   1.0000   1.0000   1.0000   1.0000   1.0000   1.0000   1.0000

          k =-0.2917 0.4571 0.0000 (  3019 PWs)   bands (ev):

   -15.0387 -14.9585 -11.7091 -11.6558  -9.9242  -9.8845  -2.8029  -2.2042

     occupation numbers 
     1.0000   1.0000   1.0000   1.0000   1.0000   1.0000   1.0000   1.0000

          k = 0.5417 0.0241 0.0000 (  3019 PWs)   bands (ev):

   -15.0384 -14.9588 -11.7117 -11.6522  -9.9267  -9.8830  -2.7991  -2.2084

     occupation numbers 
     1.0000   1.0000   1.0000   1.0000   1.0000   1.0000   1.0000   1.0000

          k =-0.2917-0.4571 0.0000 (  3019 PWs)   bands (ev):

   -15.0387 -14.9585 -11.7091 -11.6558  -9.9242  -9.8845  -2.8029  -2.2042

     occupation numbers 
     1.0000   1.0000   1.0000   1.0000   1.0000   1.0000   1.0000   1.0000

          k = 0.5417-0.0241 0.0000 (  3019 PWs)   bands (ev):

   -15.0384 -14.9588 -11.7117 -11.6522  -9.9267  -9.8830  -2.7991  -2.2084

     occupation numbers 
     1.0000   1.0000   1.0000   1.0000   1.0000   1.0000   1.0000   1.0000

          k =-0.2500 0.5052 0.0000 (  3010 PWs)   bands (ev):

   -14.6764 -14.5980 -12.0819 -12.0255 -10.0705 -10.0296  -2.4510  -1.8604

     occupation numbers 
     1.0000   1.0000   1.0000   1.0000   1.0000   1.0000   1.0000   1.0000

          k =-0.3125 0.4691 0.0000 (  3010 PWs)   bands (ev):

   -14.6760 -14.5984 -12.0815 -12.0253 -10.0711 -10.0297  -2.4435  -1.8712

     occupation numbers 
     1.0000   1.0000   1.0000   1.0000   1.0000   1.0000   1.0000   1.0000

          k = 0.5625 0.0361 0.0000 (  3010 PWs)   bands (ev):

   -14.6758 -14.5987 -12.0837 -12.0223 -10.0729 -10.0286  -2.4401  -1.8744

     occupation numbers 
     1.0000   1.0000   1.0000   1.0000   1.0000   1.0000   1.0000   1.0000

          k =-0.3125-0.4691 0.0000 (  3010 PWs)   bands (ev):

   -14.6760 -14.5984 -12.0815 -12.0253 -10.0711 -10.0297  -2.4435  -1.8712

     occupation numbers 
     1.0000   1.0000   1.0000   1.0000   1.0000   1.0000   1.0000   1.0000

          k = 0.5625-0.0361 0.0000 (  3010 PWs)   bands (ev):

   -14.6758 -14.5987 -12.0837 -12.0223 -10.0729 -10.0286  -2.4401  -1.8744

     occupation numbers 
     1.0000   1.0000   1.0000   1.0000   1.0000   1.0000   1.0000   1.0000

          k =-0.2500 0.5292 0.0000 (  3013 PWs)   bands (ev):

   -14.3176 -14.2410 -12.4549 -12.3958 -10.1696 -10.1275  -2.1296  -1.5543

     occupation numbers 
     1.0000   1.0000   1.0000   1.0000   1.0000   1.0000   1.0000   1.0000

          k =-0.3333 0.4811 0.0000 (  3013 PWs)   bands (ev):

   -14.3167 -14.2422 -12.4541 -12.3956 -10.1703 -10.1275  -2.1154  -1.5755

     occupation numbers 
     1.0000   1.0000   1.0000   1.0000   1.0000   1.0000   1.0000   1.0000

          k = 0.5833 0.0481 0.0000 (  3013 PWs)   bands (ev):

   -14.3165 -14.2425 -12.4560 -12.3932 -10.1714 -10.1268  -2.1130  -1.5767

     occupation numbers 
     1.0000   1.0000   1.0000   1.0000   1.0000   1.0000   1.0000   1.0000

          k =-0.3333-0.4811 0.0000 (  3013 PWs)   bands (ev):

   -14.3167 -14.2422 -12.4541 -12.3956 -10.1703 -10.1275  -2.1154  -1.5755

     occupation numbers 
     1.0000   1.0000   1.0000   1.0000   1.0000   1.0000   1.0000   1.0000

          k = 0.5833-0.0481 0.0000 (  3013 PWs)   bands (ev):

   -14.3165 -14.2425 -12.4560 -12.3932 -10.1714 -10.1268  -2.1130  -1.5767

     occupation numbers 
     1.0000   1.0000   1.0000   1.0000   1.0000   1.0000   1.0000   1.0000

          k =-0.2500 0.5533 0.0000 (  3011 PWs)   bands (ev):

   -13.9949 -13.9196 -12.7888 -12.7280 -10.2266 -10.1839  -1.8863  -1.3227

     occupation numbers 
     1.0000   1.0000   1.0000   1.0000   1.0000   1.0000   1.0000   1.0000

          k =-0.3542 0.4932 0.0000 (  3011 PWs)   bands (ev):

   -13.9928 -13.9225 -12.7870 -12.7283 -10.2275 -10.1838  -1.8628  -1.3589

     occupation numbers 
     1.0000   1.0000   1.0000   1.0000   1.0000   1.0000   1.0000   1.0000

          k = 0.6042 0.0601 0.0000 (  3011 PWs)   bands (ev):

   -13.9927 -13.9227 -12.7886 -12.7265 -10.2281 -10.1835  -1.8617  -1.3583

     occupation numbers 
     1.0000   1.0000   1.0000   1.0000   1.0000   1.0000   1.0000   1.0000

          k =-0.3542-0.4932 0.0000 (  3011 PWs)   bands (ev):

   -13.9928 -13.9225 -12.7870 -12.7283 -10.2275 -10.1838  -1.8628  -1.3589

     occupation numbers 
     1.0000   1.0000   1.0000   1.0000   1.0000   1.0000   1.0000   1.0000

          k = 0.6042-0.0601 0.0000 (  3011 PWs)   bands (ev):

   -13.9927 -13.9227 -12.7886 -12.7265 -10.2281 -10.1835  -1.8617  -1.3583

     occupation numbers 
     1.0000   1.0000   1.0000   1.0000   1.0000   1.0000   1.0000   1.0000

          k =-0.3750 0.5052 0.0000 (  3008 PWs)   bands (ev):

   -13.8298 -13.7641 -12.9512 -12.8937 -10.2464 -10.2021  -1.7616  -1.2767

     occupation numbers 
     1.0000   1.0000   1.0000   1.0000   1.0000   1.0000   1.0000   1.0000

          k = 0.6250 0.0722 0.0000 (  3008 PWs)   bands (ev):

   -13.8298 -13.7641 -12.9512 -12.8937 -10.2464 -10.2021  -1.7616  -1.2767

     occupation numbers 
     1.0000   1.0000   1.0000   1.0000   1.0000   1.0000   1.0000   1.0000

          k =-0.2708 0.4691 0.0000 (  3013 PWs)   bands (ev):

   -15.0472 -14.9668 -11.6215 -11.5699 -10.0167  -9.9778  -2.8055  -2.2010

     occupation numbers 
     1.0000   1.0000   1.0000   1.0000   1.0000   1.0000   1.0000   1.0000

          k = 0.5417-0.0000 0.0000 (  3013 PWs)   bands (ev):

   -15.0469 -14.9672 -11.6246 -11.5654 -10.0200  -9.9759  -2.8001  -2.2074

     occupation numbers 
     1.0000   1.0000   1.0000   1.0000   1.0000   1.0000   1.0000   1.0000

          k =-0.2708 0.4932 0.0000 (  3009 PWs)   bands (ev):

   -14.6910 -14.6128 -11.9207 -11.8670 -10.2467 -10.2066  -2.4405  -1.8522

     occupation numbers 
     1.0000   1.0000   1.0000   1.0000   1.0000   1.0000   1.0000   1.0000

          k =-0.2917 0.4811 0.0000 (  3009 PWs)   bands (ev):

   -14.6909 -14.6129 -11.9206 -11.8669 -10.2469 -10.2066  -2.4380  -1.8557

     occupation numbers 
     1.0000   1.0000   1.0000   1.0000   1.0000   1.0000   1.0000   1.0000

          k = 0.5625 0.0120 0.0000 (  3009 PWs)   bands (ev):

   -14.6905 -14.6134 -11.9237 -11.8626 -10.2499 -10.2048  -2.4327  -1.8614

     occupation numbers 
     1.0000   1.0000   1.0000   1.0000   1.0000   1.0000   1.0000   1.0000

          k =-0.2917-0.4811 0.0000 (  3009 PWs)   bands (ev):

   -14.6909 -14.6129 -11.9206 -11.8669 -10.2469 -10.2066  -2.4380  -1.8557

     occupation numbers 
     1.0000   1.0000   1.0000   1.0000   1.0000   1.0000   1.0000   1.0000

          k = 0.5625-0.0120 0.0000 (  3009 PWs)   bands (ev):

   -14.6905 -14.6134 -11.9237 -11.8626 -10.2499 -10.2048  -2.4327  -1.8614

     occupation numbers 
     1.0000   1.0000   1.0000   1.0000   1.0000   1.0000   1.0000   1.0000

          k =-0.2708 0.5172 0.0000 (  3012 PWs)   bands (ev):

   -14.3322 -14.2561 -12.2470 -12.1906 -10.4112 -10.3697  -2.0908  -1.5174

     occupation numbers 
     1.0000   1.0000   1.0000   1.0000   1.0000   1.0000   1.0000   1.0000

          k =-0.3125 0.4932 0.0000 (  3012 PWs)   bands (ev):

   -14.3318 -14.2566 -12.2466 -12.1904 -10.4117 -10.3696  -2.0836  -1.5282

     occupation numbers 
     1.0000   1.0000   1.0000   1.0000   1.0000   1.0000   1.0000   1.0000

          k = 0.5833 0.0241 0.0000 (  3012 PWs)   bands (ev):

   -14.3315 -14.2571 -12.2494 -12.1867 -10.4139 -10.3683  -2.0790  -1.5321

     occupation numbers 
     1.0000   1.0000   1.0000   1.0000   1.0000   1.0000   1.0000   1.0000

          k =-0.3125-0.4932 0.0000 (  3012 PWs)   bands (ev):

   -14.3318 -14.2566 -12.2466 -12.1904 -10.4117 -10.3696  -2.0836  -1.5282

     occupation numbers 
     1.0000   1.0000   1.0000   1.0000   1.0000   1.0000   1.0000   1.0000

          k = 0.5833-0.0241 0.0000 (  3012 PWs)   bands (ev):

   -14.3315 -14.2571 -12.2494 -12.1867 -10.4139 -10.3683  -2.0790  -1.5321

     occupation numbers 
     1.0000   1.0000   1.0000   1.0000   1.0000   1.0000   1.0000   1.0000

          k =-0.2708 0.5413 0.0000 (  3007 PWs)   bands (ev):

   -13.9871 -13.9127 -12.5770 -12.5182 -10.5153 -10.4726  -1.7854  -1.2239

     occupation numbers 
     1.0000   1.0000   1.0000   1.0000   1.0000   1.0000   1.0000   1.0000

          k =-0.3333 0.5052 0.0000 (  3007 PWs)   bands (ev):

   -13.9860 -13.9142 -12.5762 -12.5180 -10.5161 -10.4724  -1.7698  -1.2485

     occupation numbers 
     1.0000   1.0000   1.0000   1.0000   1.0000   1.0000   1.0000   1.0000

          k = 0.6042 0.0361 0.0000 (  3007 PWs)   bands (ev):

   -13.9857 -13.9146 -12.5786 -12.5150 -10.5174 -10.4716  -1.7668  -1.2490

     occupation numbers 
     1.0000   1.0000   1.0000   1.0000   1.0000   1.0000   1.0000   1.0000

          k =-0.3333-0.5052 0.0000 (  3007 PWs)   bands (ev):

   -13.9860 -13.9142 -12.5762 -12.5180 -10.5161 -10.4724  -1.7698  -1.2485

     occupation numbers 
     1.0000   1.0000   1.0000   1.0000   1.0000   1.0000   1.0000   1.0000

          k = 0.6042-0.0361 0.0000 (  3007 PWs)   bands (ev):

   -13.9857 -13.9146 -12.5786 -12.5150 -10.5174 -10.4716  -1.7668  -1.2490

     occupation numbers 
     1.0000   1.0000   1.0000   1.0000   1.0000   1.0000   1.0000   1.0000

          k =-0.2708 0.5653 0.0000 (  3008 PWs)   bands (ev):

   -13.7169 -13.6431 -12.8419 -12.7820 -10.5654 -10.5221  -1.5881  -1.0324

     occupation numbers 
     1.0000   1.0000   1.0000   1.0000   1.0000   1.0000   1.0000   1.0000

          k =-0.3542 0.5172 0.0000 (  3008 PWs)   bands (ev):

   -13.7137 -13.6474 -12.8398 -12.7822 -10.5666 -10.5217  -1.5618  -1.0756

     occupation numbers 
     1.0000   1.0000   1.0000   1.0000   1.0000   1.0000   1.0000   1.0000

          k = 0.6250 0.0481 0.0000 (  3008 PWs)   bands (ev):

   -13.7137 -13.6475 -12.8414 -12.7804 -10.5670 -10.5215  -1.5609  -1.0743

     occupation numbers 
     1.0000   1.0000   1.0000   1.0000   1.0000   1.0000   1.0000   1.0000

          k =-0.3542-0.5172 0.0000 (  3008 PWs)   bands (ev):

   -13.7137 -13.6474 -12.8398 -12.7822 -10.5666 -10.5217  -1.5618  -1.0756

     occupation numbers 
     1.0000   1.0000   1.0000   1.0000   1.0000   1.0000   1.0000   1.0000

          k = 0.6250-0.0481 0.0000 (  3008 PWs)   bands (ev):

   -13.7137 -13.6475 -12.8414 -12.7804 -10.5670 -10.5215  -1.5609  -1.0743

     occupation numbers 
     1.0000   1.0000   1.0000   1.0000   1.0000   1.0000   1.0000   1.0000

          k =-0.2917 0.5052 0.0000 (  3011 PWs)   bands (ev):

   -14.3374 -14.2617 -12.1623 -12.1074 -10.5063 -10.4654  -2.0756  -1.5087

     occupation numbers 
     1.0000   1.0000   1.0000   1.0000   1.0000   1.0000   1.0000   1.0000

          k = 0.5833-0.0000 0.0000 (  3011 PWs)   bands (ev):

   -14.3369 -14.2624 -12.1656 -12.1028 -10.5094 -10.4635  -2.0679  -1.5170

     occupation numbers 
     1.0000   1.0000   1.0000   1.0000   1.0000   1.0000   1.0000   1.0000

          k =-0.2917 0.5292 0.0000 (  3004 PWs)   bands (ev):

   -13.9869 -13.9133 -12.4349 -12.3782 -10.6913 -10.6495  -1.7302  -1.1759

     occupation numbers 
     1.0000   1.0000   1.0000   1.0000   1.0000   1.0000   1.0000   1.0000

          k =-0.3125 0.5172 0.0000 (  3004 PWs)   bands (ev):

   -13.9866 -13.9138 -12.4347 -12.3780 -10.6917 -10.6494  -1.7247  -1.1847

     occupation numbers 
     1.0000   1.0000   1.0000   1.0000   1.0000   1.0000   1.0000   1.0000

          k = 0.6042 0.0120 0.0000 (  3004 PWs)   bands (ev):

   -13.9861 -13.9145 -12.4381 -12.3736 -10.6941 -10.6479  -1.7181  -1.1896

     occupation numbers 
     1.0000   1.0000   1.0000   1.0000   1.0000   1.0000   1.0000   1.0000

          k =-0.3125-0.5172 0.0000 (  3004 PWs)   bands (ev):

   -13.9866 -13.9138 -12.4347 -12.3780 -10.6917 -10.6494  -1.7247  -1.1847

     occupation numbers 
     1.0000   1.0000   1.0000   1.0000   1.0000   1.0000   1.0000   1.0000

          k = 0.6042-0.0120 0.0000 (  3004 PWs)   bands (ev):

   -13.9861 -13.9145 -12.4381 -12.3736 -10.6941 -10.6479  -1.7181  -1.1896

     occupation numbers 
     1.0000   1.0000   1.0000   1.0000   1.0000   1.0000   1.0000   1.0000

          k =-0.2917 0.5533 0.0000 (  3000 PWs)   bands (ev):

   -13.6652 -13.5930 -12.7131 -12.6546 -10.8000 -10.7573  -1.4407  -0.8921

     occupation numbers 
     1.0000   1.0000   1.0000   1.0000   1.0000   1.0000   1.0000   1.0000

          k =-0.3333 0.5292 0.0000 (  3000 PWs)   bands (ev):

   -13.6637 -13.5951 -12.7124 -12.6543 -10.8009 -10.7570  -1.4240  -0.9221

     occupation numbers 
     1.0000   1.0000   1.0000   1.0000   1.0000   1.0000   1.0000   1.0000

          k = 0.6250 0.0241 0.0000 (  3000 PWs)   bands (ev):

   -13.6634 -13.5955 -12.7154 -12.6506 -10.8021 -10.7561  -1.4201  -0.9201

     occupation numbers 
     1.0000   1.0000   1.0000   1.0000   1.0000   1.0000   1.0000   1.0000

          k =-0.3333-0.5292 0.0000 (  3000 PWs)   bands (ev):

   -13.6637 -13.5951 -12.7124 -12.6543 -10.8009 -10.7570  -1.4240  -0.9221

     occupation numbers 
     1.0000   1.0000   1.0000   1.0000   1.0000   1.0000   1.0000   1.0000

          k = 0.6250-0.0241 0.0000 (  3000 PWs)   bands (ev):

   -13.6634 -13.5955 -12.7154 -12.6506 -10.8021 -10.7561  -1.4201  -0.9201

     occupation numbers 
     1.0000   1.0000   1.0000   1.0000   1.0000   1.0000   1.0000   1.0000

          k =-0.3542 0.5413 0.0000 (  3006 PWs)   bands (ev):

   -13.4892 -13.4259 -12.8710 -12.8116 -10.8370 -10.7918  -1.2835  -0.8113

     occupation numbers 
     1.0000   1.0000   1.0000   1.0000   1.0000   1.0000   1.0000   1.0000

          k = 0.6458 0.0361 0.0000 (  3006 PWs)   bands (ev):

   -13.4892 -13.4259 -12.8710 -12.8116 -10.8370 -10.7918  -1.2835  -0.8113

     occupation numbers 
     1.0000   1.0000   1.0000   1.0000   1.0000   1.0000   1.0000   1.0000

          k =-0.3125 0.5413 0.0000 (  3009 PWs)   bands (ev):

   -13.6513 -13.5806 -12.6545 -12.5966 -10.8901 -10.8477  -1.3792  -0.8505

     occupation numbers 
     1.0000   1.0000   1.0000   1.0000   1.0000   1.0000   1.0000   1.0000

          k = 0.6250-0.0000 0.0000 (  3009 PWs)   bands (ev):

   -13.6504 -13.5819 -12.6581 -12.5919 -10.8923 -10.8463  -1.3681  -0.8578

     occupation numbers 
     1.0000   1.0000   1.0000   1.0000   1.0000   1.0000   1.0000   1.0000

          k =-0.3125 0.5653 0.0000 (  3013 PWs)   bands (ev):

   -13.3646 -13.2944 -12.8815 -12.8224 -10.9923 -10.9496  -1.0979  -0.5668

     occupation numbers 
     1.0000   1.0000   1.0000   1.0000   1.0000   1.0000   1.0000   0.9890

          k =-0.3333 0.5533 0.0000 (  3013 PWs)   bands (ev):

   -13.3625 -13.2974 -12.8809 -12.8218 -10.9930 -10.9492  -1.0813  -0.6169

     occupation numbers 
     1.0000   1.0000   1.0000   1.0000   1.0000   1.0000   1.0000   1.0000

          k = 0.6458 0.0120 0.0000 (  3013 PWs)   bands (ev):

   -13.3622 -13.2978 -12.8843 -12.8180 -10.9938 -10.9487  -1.0756  -0.5996

     occupation numbers 
     1.0000   1.0000   1.0000   1.0000   1.0000   1.0000   1.0000   1.0000

          k =-0.3333-0.5533 0.0000 (  3013 PWs)   bands (ev):

   -13.3625 -13.2974 -12.8809 -12.8218 -10.9930 -10.9492  -1.0813  -0.6169

     occupation numbers 
     1.0000   1.0000   1.0000   1.0000   1.0000   1.0000   1.0000   1.0000

          k = 0.6458-0.0120 0.0000 (  3013 PWs)   bands (ev):

   -13.3622 -13.2978 -12.8843 -12.8180 -10.9938 -10.9487  -1.0756  -0.5996

     occupation numbers 
     1.0000   1.0000   1.0000   1.0000   1.0000   1.0000   1.0000   1.0000

     the Fermi energy is    -0.5668 ev

     Writing output data file g.dos1.save

     init_run     :      1.56s CPU      1.58s WALL (       1 calls)
     electrons    :    395.92s CPU    397.61s WALL (       1 calls)

     Called by init_run:
     wfcinit      :      0.00s CPU      0.00s WALL (       1 calls)
     potinit      :      0.24s CPU      0.26s WALL (       1 calls)

     Called by electrons:
     c_bands      :    395.84s CPU    397.54s WALL (       1 calls)
     v_of_rho     :      0.20s CPU      0.21s WALL (       1 calls)
     v_h          :      0.01s CPU      0.01s WALL (       1 calls)
     v_xc         :      0.19s CPU      0.20s WALL (       1 calls)
     newd         :      0.24s CPU      0.24s WALL (       1 calls)

     Called by c_bands:
     init_us_2    :      1.21s CPU      1.23s WALL (    1154 calls)
     cegterg      :    340.40s CPU    341.82s WALL (    1170 calls)

     Called by sum_band:

     Called by *egterg:
     h_psi        :    233.28s CPU    234.66s WALL (   18449 calls)
     s_psi        :     34.42s CPU     34.48s WALL (   18449 calls)
     g_psi        :      2.27s CPU      2.28s WALL (   16125 calls)
     cdiaghg      :      5.04s CPU      5.05s WALL (   17279 calls)
     cegterg:over :     42.41s CPU     42.48s WALL (   16125 calls)
     cegterg:upda :     28.72s CPU     28.76s WALL (   16125 calls)
     cegterg:last :     25.41s CPU     25.42s WALL (    4817 calls)

     Called by h_psi:
     h_psi:vloc   :    160.16s CPU    161.26s WALL (   18449 calls)
     h_psi:vnl    :     71.99s CPU     72.27s WALL (   18449 calls)
     add_vuspsi   :     34.50s CPU     34.59s WALL (   18449 calls)

     General routines
     calbec       :     37.37s CPU     37.58s WALL (   18449 calls)
     fft          :      0.12s CPU      0.12s WALL (      12 calls)
     ffts         :      0.00s CPU      0.00s WALL (       1 calls)
     fftw         :    117.91s CPU    118.75s WALL (  270728 calls)
     interpolate  :      0.01s CPU      0.01s WALL (       1 calls)

     Parallel routines
     fft_scatter  :     18.68s CPU     18.81s WALL (  270741 calls)

     PWSCF        :  6m44.18s CPU     6m46.57s WALL


   This run was terminated on:  12:25:28  21Apr2020            

=------------------------------------------------------------------------------=
   JOB DONE.
=------------------------------------------------------------------------------=
