
     Program PROJWFC v.5.1 starts on 21Apr2020 at 12:58:24 

     This program is part of the open-source Quantum ESPRESSO suite
     for quantum simulation of materials; please cite
         "P. Giannozzi et al., J. Phys.:Condens. Matter 21 395502 (2009);
          URL http://www.quantum-espresso.org", 
     in publications or presentations arising from this work. More details at
     http://www.quantum-espresso.org/quote

     Parallel version (MPI), running on     1 processors

   Info: using nr1, nr2, nr3 values from input

   Info: using nr1s, nr2s, nr3s values from input

     IMPORTANT: XC functional enforced from input :
     Exchange-correlation      = PBE ( 1  4  3  4 0)
     Any further DFT definition will be discarded
     Please, verify this is what you really want

               file C.pbe-rrkjus.UPF: wavefunction(s)  2S 2P renormalized

     G-vector sticks info
     --------------------
     sticks:   dense  smooth     PW     G-vecs:    dense   smooth      PW
     Sum         595     241     85                96043    24369    4587


     negative rho (up, down):  1.541E-06 0.000E+00

     Gaussian broadening (read from input): ngauss,degauss=   0    0.010000


     Calling projwave .... 

     Atomic states used for projection
     (read from pseudopotential files):

     state #   1: atom   1 (C  ), wfc  1 (l=0 m= 1)
     state #   2: atom   1 (C  ), wfc  2 (l=1 m= 1)
     state #   3: atom   1 (C  ), wfc  2 (l=1 m= 2)
     state #   4: atom   1 (C  ), wfc  2 (l=1 m= 3)
     state #   5: atom   2 (C  ), wfc  1 (l=0 m= 1)
     state #   6: atom   2 (C  ), wfc  2 (l=1 m= 1)
     state #   7: atom   2 (C  ), wfc  2 (l=1 m= 2)
     state #   8: atom   2 (C  ), wfc  2 (l=1 m= 3)
     state #   9: atom   3 (C  ), wfc  1 (l=0 m= 1)
     state #  10: atom   3 (C  ), wfc  2 (l=1 m= 1)
     state #  11: atom   3 (C  ), wfc  2 (l=1 m= 2)
     state #  12: atom   3 (C  ), wfc  2 (l=1 m= 3)
     state #  13: atom   4 (C  ), wfc  1 (l=0 m= 1)
     state #  14: atom   4 (C  ), wfc  2 (l=1 m= 1)
     state #  15: atom   4 (C  ), wfc  2 (l=1 m= 2)
     state #  16: atom   4 (C  ), wfc  2 (l=1 m= 3)

 k =   0.0000000000  0.0000000000  0.0000000000
==== e(   1) =   -20.02311 eV ==== 
     psi = 0.244*[#   1]+0.244*[#   5]+0.244*[#   9]+0.244*[#  13]+
    |psi|^2 = 0.979
==== e(   2) =   -19.90957 eV ==== 
     psi = 0.246*[#   1]+0.246*[#   5]+0.246*[#   9]+0.246*[#  13]+
    |psi|^2 = 0.986
==== e(   3) =    -8.48762 eV ==== 
     psi = 0.237*[#   2]+0.237*[#   6]+0.237*[#  10]+0.237*[#  14]+
    |psi|^2 = 0.949
==== e(   4) =    -7.67629 eV ==== 
     psi = 0.241*[#   2]+0.241*[#   6]+0.241*[#  10]+0.241*[#  14]+
    |psi|^2 = 0.964
==== e(   5) =    -3.56821 eV ==== 
     psi = 0.249*[#   4]+0.249*[#   8]+0.249*[#  12]+0.249*[#  16]+
    |psi|^2 = 0.997
==== e(   6) =    -3.56448 eV ==== 
     psi = 0.249*[#  11]+0.249*[#  15]+0.249*[#   3]+0.249*[#   7]+
    |psi|^2 = 0.997
==== e(   7) =    -3.55799 eV ==== 
     psi = 0.249*[#   3]+0.249*[#   7]+0.249*[#  11]+0.249*[#  15]+
    |psi|^2 = 0.997
==== e(   8) =    -3.55770 eV ==== 
     psi = 0.249*[#  12]+0.249*[#  16]+0.249*[#   4]+0.249*[#   8]+
    |psi|^2 = 0.997

 k =   0.0000000000  0.0240562612  0.0000000000
==== e(   1) =   -20.01285 eV ==== 
     psi = 0.243*[#   1]+0.243*[#   5]+0.243*[#   9]+0.243*[#  13]+
    |psi|^2 = 0.979
==== e(   2) =   -19.89938 eV ==== 
     psi = 0.245*[#   1]+0.245*[#   5]+0.245*[#   9]+0.245*[#  13]+
    |psi|^2 = 0.986
==== e(   3) =    -8.47526 eV ==== 
     psi = 0.237*[#   2]+0.237*[#   6]+0.237*[#  10]+0.237*[#  14]+
    |psi|^2 = 0.949
==== e(   4) =    -7.66425 eV ==== 
     psi = 0.241*[#   2]+0.241*[#   6]+0.241*[#  10]+0.241*[#  14]+
    |psi|^2 = 0.965
==== e(   5) =    -3.61078 eV ==== 
     psi = 0.249*[#   4]+0.249*[#   8]+0.249*[#  12]+0.249*[#  16]+
    |psi|^2 = 0.997
==== e(   6) =    -3.60000 eV ==== 
     psi = 0.249*[#  12]+0.249*[#  16]+0.248*[#   4]+0.248*[#   8]+
    |psi|^2 = 0.997
==== e(   7) =    -3.58701 eV ==== 
     psi = 0.249*[#  11]+0.249*[#  15]+0.249*[#   3]+0.249*[#   7]+
    |psi|^2 = 0.997
==== e(   8) =    -3.58050 eV ==== 
     psi = 0.249*[#   3]+0.249*[#   7]+0.249*[#  11]+0.249*[#  15]+
    |psi|^2 = 0.997

 k =   0.0000000000  0.0481125224  0.0000000000
==== e(   1) =   -19.98206 eV ==== 
     psi = 0.241*[#   1]+0.241*[#   5]+0.241*[#   9]+0.241*[#  13]+0.004*[#   4]+
          +0.004*[#   8]+0.004*[#  12]+0.004*[#  16]+
    |psi|^2 = 0.979
==== e(   2) =   -19.86882 eV ==== 
     psi = 0.243*[#   1]+0.243*[#   5]+0.243*[#   9]+0.243*[#  13]+0.004*[#   4]+
          +0.004*[#   8]+0.004*[#  12]+0.004*[#  16]+
    |psi|^2 = 0.986
==== e(   3) =    -8.43816 eV ==== 
     psi = 0.237*[#   2]+0.237*[#   6]+0.237*[#  10]+0.237*[#  14]+
    |psi|^2 = 0.950
==== e(   4) =    -7.62806 eV ==== 
     psi = 0.241*[#   2]+0.241*[#   6]+0.241*[#  10]+0.241*[#  14]+
    |psi|^2 = 0.965
==== e(   5) =    -3.73663 eV ==== 
     psi = 0.247*[#   4]+0.247*[#   8]+0.247*[#  12]+0.247*[#  16]+0.002*[#   1]+
          +0.002*[#   5]+0.002*[#   9]+0.002*[#  13]+
    |psi|^2 = 0.997
==== e(   6) =    -3.72503 eV ==== 
     psi = 0.247*[#  12]+0.247*[#  16]+0.247*[#   4]+0.247*[#   8]+0.002*[#   1]+
          +0.002*[#   5]+0.002*[#   9]+0.002*[#  13]+
    |psi|^2 = 0.997
==== e(   7) =    -3.65328 eV ==== 
     psi = 0.249*[#  11]+0.249*[#  15]+0.249*[#   3]+0.249*[#   7]+
    |psi|^2 = 0.997
==== e(   8) =    -3.64662 eV ==== 
     psi = 0.249*[#   3]+0.249*[#   7]+0.249*[#  11]+0.249*[#  15]+
    |psi|^2 = 0.997

 k =   0.0000000000  0.0721687836  0.0000000000
==== e(   1) =   -19.93077 eV ==== 
     psi = 0.236*[#   1]+0.236*[#   5]+0.236*[#   9]+0.236*[#  13]+0.008*[#   4]+
          +0.008*[#   8]+0.008*[#  12]+0.008*[#  16]+
    |psi|^2 = 0.979
==== e(   2) =   -19.81788 eV ==== 
     psi = 0.238*[#   1]+0.238*[#   5]+0.238*[#   9]+0.238*[#  13]+0.008*[#   4]+
          +0.008*[#   8]+0.008*[#  12]+0.008*[#  16]+
    |psi|^2 = 0.986
==== e(   3) =    -8.37637 eV ==== 
     psi = 0.237*[#   2]+0.237*[#   6]+0.237*[#  10]+0.237*[#  14]+
    |psi|^2 = 0.951
==== e(   4) =    -7.56782 eV ==== 
     psi = 0.241*[#   2]+0.241*[#   6]+0.241*[#  10]+0.241*[#  14]+
    |psi|^2 = 0.967
==== e(   5) =    -3.94091 eV ==== 
     psi = 0.244*[#   4]+0.244*[#   8]+0.244*[#  12]+0.244*[#  16]+0.005*[#   1]+
          +0.005*[#   5]+0.005*[#   9]+0.005*[#  13]+
    |psi|^2 = 0.997
==== e(   6) =    -3.92783 eV ==== 
     psi = 0.244*[#  12]+0.244*[#  16]+0.244*[#   4]+0.244*[#   8]+0.005*[#   1]+
          +0.005*[#   5]+0.005*[#   9]+0.005*[#  13]+
    |psi|^2 = 0.997
==== e(   7) =    -3.75983 eV ==== 
     psi = 0.249*[#   3]+0.249*[#   7]+0.249*[#  11]+0.249*[#  15]+
    |psi|^2 = 0.997
==== e(   8) =    -3.75292 eV ==== 
     psi = 0.249*[#   3]+0.249*[#   7]+0.249*[#  11]+0.249*[#  15]+
    |psi|^2 = 0.997

 k =   0.0000000000  0.0962250449  0.0000000000
==== e(   1) =   -19.85901 eV ==== 
     psi = 0.231*[#   1]+0.231*[#   5]+0.231*[#   9]+0.231*[#  13]+0.014*[#   4]+
          +0.014*[#   8]+0.014*[#  12]+0.014*[#  16]+
    |psi|^2 = 0.979
==== e(   2) =   -19.74662 eV ==== 
     psi = 0.233*[#   1]+0.233*[#   5]+0.233*[#   9]+0.233*[#  13]+0.013*[#   4]+
          +0.013*[#   8]+0.013*[#  12]+0.013*[#  16]+
    |psi|^2 = 0.986
==== e(   3) =    -8.28998 eV ==== 
     psi = 0.238*[#   2]+0.238*[#   6]+0.238*[#  10]+0.238*[#  14]+
    |psi|^2 = 0.953
==== e(   4) =    -7.48365 eV ==== 
     psi = 0.242*[#   2]+0.242*[#   6]+0.242*[#  10]+0.242*[#  14]+
    |psi|^2 = 0.968
==== e(   5) =    -4.21624 eV ==== 
     psi = 0.241*[#   4]+0.241*[#   8]+0.241*[#  12]+0.241*[#  16]+0.009*[#   1]+
          +0.009*[#   5]+0.009*[#   9]+0.009*[#  13]+
    |psi|^2 = 0.997
==== e(   6) =    -4.20133 eV ==== 
     psi = 0.241*[#  12]+0.241*[#  16]+0.241*[#   4]+0.241*[#   8]+0.009*[#   1]+
          +0.009*[#   5]+0.009*[#   9]+0.009*[#  13]+
    |psi|^2 = 0.997
==== e(   7) =    -3.90132 eV ==== 
     psi = 0.249*[#   3]+0.249*[#   7]+0.249*[#  11]+0.249*[#  15]+
    |psi|^2 = 0.997
==== e(   8) =    -3.89419 eV ==== 
     psi = 0.249*[#   3]+0.249*[#   7]+0.249*[#  11]+0.249*[#  15]+
    |psi|^2 = 0.997

 k =   0.0000000000  0.1202813061  0.0000000000
==== e(   1) =   -19.76683 eV ==== 
     psi = 0.224*[#   1]+0.224*[#   5]+0.224*[#   9]+0.224*[#  13]+0.020*[#   4]+
          +0.020*[#   8]+0.020*[#  12]+0.020*[#  16]+
    |psi|^2 = 0.979
==== e(   2) =   -19.65510 eV ==== 
     psi = 0.227*[#   1]+0.227*[#   5]+0.227*[#   9]+0.227*[#  13]+0.019*[#   4]+
          +0.019*[#   8]+0.019*[#  12]+0.019*[#  16]+
    |psi|^2 = 0.985
==== e(   3) =    -8.17918 eV ==== 
     psi = 0.238*[#   2]+0.238*[#   6]+0.238*[#  10]+0.238*[#  14]+
    |psi|^2 = 0.955
==== e(   4) =    -7.37568 eV ==== 
     psi = 0.242*[#   2]+0.242*[#   6]+0.242*[#  10]+0.242*[#  14]+
    |psi|^2 = 0.970
==== e(   5) =    -4.55385 eV ==== 
     psi = 0.236*[#   4]+0.236*[#   8]+0.236*[#  12]+0.236*[#  16]+0.013*[#   1]+
          +0.013*[#   5]+0.013*[#   9]+0.013*[#  13]+
    |psi|^2 = 0.996
==== e(   6) =    -4.53670 eV ==== 
     psi = 0.237*[#  12]+0.237*[#  16]+0.236*[#   4]+0.236*[#   8]+0.013*[#   1]+
          +0.013*[#   5]+0.013*[#   9]+0.013*[#  13]+
    |psi|^2 = 0.997
==== e(   7) =    -4.07163 eV ==== 
     psi = 0.249*[#   3]+0.249*[#   7]+0.249*[#  11]+0.249*[#  15]+
    |psi|^2 = 0.997
==== e(   8) =    -4.06427 eV ==== 
     psi = 0.249*[#   3]+0.249*[#   7]+0.249*[#  11]+0.249*[#  15]+
    |psi|^2 = 0.997

 k =   0.0000000000  0.1443375673  0.0000000000
==== e(   1) =   -19.65428 eV ==== 
     psi = 0.217*[#   1]+0.217*[#   5]+0.217*[#   9]+0.217*[#  13]+0.027*[#   4]+
          +0.027*[#   8]+0.027*[#  12]+0.027*[#  16]+
    |psi|^2 = 0.979
==== e(   2) =   -19.54334 eV ==== 
     psi = 0.220*[#   1]+0.220*[#   5]+0.220*[#   9]+0.220*[#  13]+0.026*[#   4]+
          +0.026*[#   8]+0.026*[#  12]+0.026*[#  16]+
    |psi|^2 = 0.985
==== e(   3) =    -8.04407 eV ==== 
     psi = 0.239*[#   2]+0.239*[#   6]+0.239*[#  10]+0.239*[#  14]+
    |psi|^2 = 0.958
==== e(   4) =    -7.24403 eV ==== 
     psi = 0.243*[#   2]+0.243*[#   6]+0.243*[#  10]+0.243*[#  14]+
    |psi|^2 = 0.972
==== e(   5) =    -4.94443 eV ==== 
     psi = 0.231*[#   4]+0.231*[#   8]+0.231*[#  12]+0.231*[#  16]+0.018*[#   1]+
          +0.018*[#   5]+0.018*[#   9]+0.018*[#  13]+
    |psi|^2 = 0.996
==== e(   6) =    -4.92470 eV ==== 
     psi = 0.232*[#  12]+0.232*[#  16]+0.232*[#   4]+0.232*[#   8]+0.018*[#   1]+
          +0.018*[#   5]+0.018*[#   9]+0.018*[#  13]+
    |psi|^2 = 0.997
==== e(   7) =    -4.26399 eV ==== 
     psi = 0.249*[#   3]+0.249*[#   7]+0.249*[#  11]+0.249*[#  15]+
    |psi|^2 = 0.997
==== e(   8) =    -4.25632 eV ==== 
     psi = 0.249*[#   3]+0.249*[#   7]+0.249*[#  11]+0.249*[#  15]+
    |psi|^2 = 0.997

 k =   0.0000000000  0.1683938285  0.0000000000
==== e(   1) =   -19.52147 eV ==== 
     psi = 0.209*[#   1]+0.209*[#   5]+0.209*[#   9]+0.209*[#  13]+0.035*[#   4]+
          +0.035*[#   8]+0.035*[#  12]+0.035*[#  16]+
    |psi|^2 = 0.978
==== e(   2) =   -19.41145 eV ==== 
     psi = 0.212*[#   1]+0.212*[#   5]+0.212*[#   9]+0.212*[#  13]+0.034*[#   4]+
          +0.034*[#   8]+0.034*[#  12]+0.034*[#  16]+
    |psi|^2 = 0.985
==== e(   3) =    -7.88492 eV ==== 
     psi = 0.240*[#   2]+0.240*[#   6]+0.240*[#  10]+0.240*[#  14]+
    |psi|^2 = 0.961
==== e(   4) =    -7.08909 eV ==== 
     psi = 0.243*[#   2]+0.243*[#   6]+0.243*[#  10]+0.243*[#  14]+
    |psi|^2 = 0.975
==== e(   5) =    -5.37882 eV ==== 
     psi = 0.226*[#   4]+0.226*[#   8]+0.226*[#  12]+0.226*[#  16]+0.023*[#   1]+
          +0.023*[#   5]+0.023*[#   9]+0.023*[#  13]+
    |psi|^2 = 0.995
==== e(   6) =    -5.35627 eV ==== 
     psi = 0.227*[#  12]+0.227*[#  16]+0.226*[#   4]+0.226*[#   8]+0.023*[#   1]+
          +0.023*[#   5]+0.023*[#   9]+0.023*[#  13]+
    |psi|^2 = 0.996
==== e(   7) =    -4.47212 eV ==== 
     psi = 0.249*[#   3]+0.249*[#   7]+0.249*[#  11]+0.249*[#  15]+
    |psi|^2 = 0.997
==== e(   8) =    -4.46416 eV ==== 
     psi = 0.249*[#   3]+0.249*[#   7]+0.249*[#  11]+0.249*[#  15]+
    |psi|^2 = 0.997

 k =   0.0000000000  0.1924500897  0.0000000000
==== e(   1) =   -19.36848 eV ==== 
     psi = 0.202*[#   1]+0.202*[#   5]+0.202*[#   9]+0.202*[#  13]+0.042*[#   4]+
          +0.042*[#   8]+0.042*[#  12]+0.042*[#  16]+
    |psi|^2 = 0.978
==== e(   2) =   -19.25953 eV ==== 
     psi = 0.205*[#   1]+0.205*[#   5]+0.205*[#   9]+0.205*[#  13]+0.041*[#   4]+
          +0.041*[#   8]+0.041*[#  12]+0.041*[#  16]+
    |psi|^2 = 0.984
==== e(   3) =    -7.70206 eV ==== 
     psi = 0.241*[#   2]+0.241*[#   6]+0.241*[#  10]+0.241*[#  14]+
    |psi|^2 = 0.964
==== e(   4) =    -6.91118 eV ==== 
     psi = 0.244*[#   2]+0.244*[#   6]+0.244*[#  10]+0.244*[#  14]+
    |psi|^2 = 0.977
==== e(   5) =    -5.84852 eV ==== 
     psi = 0.220*[#   4]+0.220*[#   8]+0.220*[#  12]+0.220*[#  16]+0.028*[#   1]+
          +0.028*[#   5]+0.028*[#   9]+0.028*[#  13]+
    |psi|^2 = 0.994
==== e(   6) =    -5.82308 eV ==== 
     psi = 0.221*[#   4]+0.221*[#   8]+0.221*[#  12]+0.221*[#  16]+0.028*[#   1]+
          +0.028*[#   5]+0.028*[#   9]+0.028*[#  13]+
    |psi|^2 = 0.996
==== e(   7) =    -4.69014 eV ==== 
     psi = 0.249*[#   3]+0.249*[#   7]+0.249*[#  11]+0.249*[#  15]+
    |psi|^2 = 0.997
==== e(   8) =    -4.68191 eV ==== 
     psi = 0.249*[#   3]+0.249*[#   7]+0.249*[#  11]+0.249*[#  15]+
    |psi|^2 = 0.997

 k =   0.0000000000  0.2165063509  0.0000000000
==== e(   1) =   -19.19543 eV ==== 
     psi = 0.194*[#   1]+0.194*[#   5]+0.194*[#   9]+0.194*[#  13]+0.050*[#   4]+
          +0.050*[#   8]+0.050*[#  12]+0.050*[#  16]+
    |psi|^2 = 0.978
==== e(   2) =   -19.08767 eV ==== 
     psi = 0.197*[#   1]+0.197*[#   5]+0.197*[#   9]+0.197*[#  13]+0.049*[#   4]+
          +0.049*[#   8]+0.049*[#  12]+0.049*[#  16]+
    |psi|^2 = 0.984
==== e(   3) =    -7.49583 eV ==== 
     psi = 0.242*[#   2]+0.242*[#   6]+0.242*[#  10]+0.242*[#  14]+
    |psi|^2 = 0.968
==== e(   4) =    -6.71070 eV ==== 
     psi = 0.245*[#   2]+0.245*[#   6]+0.245*[#  10]+0.245*[#  14]+
    |psi|^2 = 0.980
==== e(   5) =    -6.34587 eV ==== 
     psi = 0.215*[#   4]+0.215*[#   8]+0.215*[#  12]+0.215*[#  16]+0.033*[#   1]+
          +0.033*[#   5]+0.033*[#   9]+0.033*[#  13]+
    |psi|^2 = 0.993
==== e(   6) =    -6.31737 eV ==== 
     psi = 0.216*[#   4]+0.216*[#   8]+0.216*[#  12]+0.216*[#  16]+0.033*[#   1]+
          +0.033*[#   5]+0.033*[#   9]+0.033*[#  13]+
    |psi|^2 = 0.995
==== e(   7) =    -4.91268 eV ==== 
     psi = 0.249*[#   3]+0.249*[#   7]+0.249*[#  11]+0.249*[#  15]+
    |psi|^2 = 0.997
==== e(   8) =    -4.90421 eV ==== 
     psi = 0.249*[#   3]+0.249*[#   7]+0.249*[#  11]+0.249*[#  15]+
    |psi|^2 = 0.997

 k =   0.0000000000  0.2405626122  0.0000000000
==== e(   1) =   -19.00246 eV ==== 
     psi = 0.187*[#   1]+0.187*[#   5]+0.187*[#   9]+0.187*[#  13]+0.057*[#   4]+
          +0.057*[#   8]+0.057*[#  12]+0.057*[#  16]+
    |psi|^2 = 0.977
==== e(   2) =   -18.89601 eV ==== 
     psi = 0.190*[#   1]+0.190*[#   5]+0.190*[#   9]+0.190*[#  13]+0.056*[#   4]+
          +0.056*[#   8]+0.056*[#  12]+0.056*[#  16]+
    |psi|^2 = 0.984
==== e(   3) =    -7.26674 eV ==== 
     psi = 0.243*[#   2]+0.243*[#   6]+0.243*[#  10]+0.243*[#  14]+
    |psi|^2 = 0.971
==== e(   4) =    -6.86413 eV ==== 
     psi = 0.209*[#   4]+0.209*[#   8]+0.209*[#  12]+0.209*[#  16]+0.039*[#   1]+
          +0.039*[#   5]+0.039*[#   9]+0.039*[#  13]+
    |psi|^2 = 0.992
==== e(   5) =    -6.83288 eV ==== 
     psi = 0.210*[#   4]+0.210*[#   8]+0.210*[#  12]+0.210*[#  16]+0.038*[#   1]+
          +0.038*[#   5]+0.038*[#   9]+0.038*[#  13]+
    |psi|^2 = 0.995
==== e(   6) =    -6.48780 eV ==== 
     psi = 0.245*[#   2]+0.245*[#   6]+0.245*[#  10]+0.245*[#  14]+
    |psi|^2 = 0.982
==== e(   7) =    -5.13530 eV ==== 
     psi = 0.249*[#   3]+0.249*[#   7]+0.249*[#  11]+0.249*[#  15]+
    |psi|^2 = 0.997
==== e(   8) =    -5.12660 eV ==== 
     psi = 0.249*[#   3]+0.249*[#   7]+0.249*[#  11]+0.249*[#  15]+
    |psi|^2 = 0.997

 k =   0.0000000000  0.2646188734  0.0000000000
==== e(   1) =   -18.78974 eV ==== 
     psi = 0.180*[#   1]+0.180*[#   5]+0.180*[#   9]+0.180*[#  13]+0.064*[#   4]+
          +0.064*[#   8]+0.064*[#  12]+0.064*[#  16]+
    |psi|^2 = 0.977
==== e(   2) =   -18.68474 eV ==== 
     psi = 0.183*[#   1]+0.183*[#   5]+0.183*[#   9]+0.183*[#  13]+0.063*[#   4]+
          +0.063*[#   8]+0.063*[#  12]+0.063*[#  16]+
    |psi|^2 = 0.984
==== e(   3) =    -7.39800 eV ==== 
     psi = 0.204*[#   4]+0.204*[#   8]+0.204*[#  12]+0.204*[#  16]+0.044*[#   1]+
          +0.044*[#   5]+0.044*[#   9]+0.044*[#  13]+
    |psi|^2 = 0.992
==== e(   4) =    -7.36326 eV ==== 
     psi = 0.205*[#   4]+0.205*[#   8]+0.205*[#  12]+0.205*[#  16]+0.043*[#   1]+
          +0.043*[#   5]+0.043*[#   9]+0.043*[#  13]+
    |psi|^2 = 0.994
==== e(   5) =    -7.01494 eV ==== 
     psi = 0.243*[#   2]+0.243*[#   6]+0.243*[#  10]+0.243*[#  14]+
    |psi|^2 = 0.975
==== e(   6) =    -6.24379 eV ==== 
     psi = 0.246*[#   2]+0.246*[#   6]+0.246*[#  10]+0.246*[#  14]+
    |psi|^2 = 0.985
==== e(   7) =    -5.35418 eV ==== 
     psi = 0.249*[#   3]+0.249*[#   7]+0.249*[#  11]+0.249*[#  15]+
    |psi|^2 = 0.997
==== e(   8) =    -5.34528 eV ==== 
     psi = 0.249*[#   3]+0.249*[#   7]+0.249*[#  11]+0.249*[#  15]+
    |psi|^2 = 0.997

 k =   0.0000000000  0.2886751346  0.0000000000
==== e(   1) =   -18.55745 eV ==== 
     psi = 0.174*[#   1]+0.174*[#   5]+0.174*[#   9]+0.174*[#  13]+0.070*[#   4]+
          +0.070*[#   8]+0.070*[#  12]+0.070*[#  16]+
    |psi|^2 = 0.977
==== e(   2) =   -18.45403 eV ==== 
     psi = 0.177*[#   1]+0.177*[#   5]+0.177*[#   9]+0.177*[#  13]+0.069*[#   4]+
          +0.069*[#   8]+0.069*[#  12]+0.069*[#  16]+
    |psi|^2 = 0.984
==== e(   3) =    -7.94160 eV ==== 
     psi = 0.199*[#   4]+0.199*[#   8]+0.199*[#  12]+0.199*[#  16]+0.049*[#   1]+
          +0.049*[#   5]+0.049*[#   9]+0.049*[#  13]+
    |psi|^2 = 0.991
==== e(   4) =    -7.90382 eV ==== 
     psi = 0.200*[#   4]+0.200*[#   8]+0.200*[#  12]+0.200*[#  16]+0.048*[#   1]+
          +0.048*[#   5]+0.048*[#   9]+0.048*[#  13]+
    |psi|^2 = 0.994
==== e(   5) =    -6.74197 eV ==== 
     psi = 0.244*[#   2]+0.244*[#   6]+0.244*[#  10]+0.244*[#  14]+
    |psi|^2 = 0.979
==== e(   6) =    -5.97905 eV ==== 
     psi = 0.247*[#   2]+0.247*[#   6]+0.247*[#  10]+0.247*[#  14]+
    |psi|^2 = 0.987
==== e(   7) =    -5.56599 eV ==== 
     psi = 0.249*[#   3]+0.249*[#   7]+0.249*[#  11]+0.249*[#  15]+
    |psi|^2 = 0.997
==== e(   8) =    -5.55693 eV ==== 
     psi = 0.249*[#   3]+0.249*[#   7]+0.249*[#  11]+0.249*[#  15]+
    |psi|^2 = 0.997

 k =   0.0000000000  0.3127313958  0.0000000000
==== e(   1) =   -18.30584 eV ==== 
     psi = 0.168*[#   1]+0.168*[#   5]+0.168*[#   9]+0.168*[#  13]+0.076*[#   4]+
          +0.076*[#   8]+0.076*[#  12]+0.076*[#  16]+
    |psi|^2 = 0.977
==== e(   2) =   -18.20409 eV ==== 
     psi = 0.171*[#   1]+0.171*[#   5]+0.171*[#   9]+0.171*[#  13]+0.075*[#   4]+
          +0.075*[#   8]+0.075*[#  12]+0.075*[#  16]+
    |psi|^2 = 0.984
==== e(   3) =    -8.49117 eV ==== 
     psi = 0.194*[#   4]+0.194*[#   8]+0.194*[#  12]+0.194*[#  16]+0.053*[#   1]+
          +0.053*[#   5]+0.053*[#   9]+0.053*[#  13]+
    |psi|^2 = 0.991
==== e(   4) =    -8.45032 eV ==== 
     psi = 0.195*[#   4]+0.195*[#   8]+0.195*[#  12]+0.195*[#  16]+0.053*[#   1]+
          +0.053*[#   5]+0.053*[#   9]+0.053*[#  13]+
    |psi|^2 = 0.993
==== e(   5) =    -6.44828 eV ==== 
     psi = 0.245*[#   2]+0.245*[#   6]+0.245*[#  10]+0.245*[#  14]+
    |psi|^2 = 0.982
==== e(   6) =    -5.76827 eV ==== 
     psi = 0.249*[#   3]+0.249*[#   7]+0.249*[#  11]+0.249*[#  15]+
    |psi|^2 = 0.997
==== e(   7) =    -5.75888 eV ==== 
     psi = 0.249*[#   3]+0.249*[#   7]+0.249*[#  11]+0.249*[#  15]+
    |psi|^2 = 0.997
==== e(   8) =    -5.69455 eV ==== 
     psi = 0.247*[#   2]+0.247*[#   6]+0.247*[#  10]+0.247*[#  14]+
    |psi|^2 = 0.990

 k =   0.0000000000  0.3367876570  0.0000000000
==== e(   1) =   -18.03519 eV ==== 
     psi = 0.162*[#   1]+0.162*[#   5]+0.162*[#   9]+0.162*[#  13]+0.082*[#   4]+
          +0.082*[#   8]+0.082*[#  12]+0.082*[#  16]+
    |psi|^2 = 0.977
==== e(   2) =   -17.93523 eV ==== 
     psi = 0.165*[#   1]+0.165*[#   5]+0.165*[#   9]+0.165*[#  13]+0.081*[#   4]+
          +0.081*[#   8]+0.081*[#  12]+0.081*[#  16]+
    |psi|^2 = 0.984
==== e(   3) =    -9.04296 eV ==== 
     psi = 0.190*[#   4]+0.190*[#   8]+0.190*[#  12]+0.190*[#  16]+0.058*[#   1]+
          +0.058*[#   5]+0.058*[#   9]+0.058*[#  13]+
    |psi|^2 = 0.990
==== e(   4) =    -8.99898 eV ==== 
     psi = 0.191*[#   4]+0.191*[#   8]+0.191*[#  12]+0.191*[#  16]+0.057*[#   1]+
          +0.057*[#   5]+0.057*[#   9]+0.057*[#  13]+
    |psi|^2 = 0.993
==== e(   5) =    -6.13519 eV ==== 
     psi = 0.246*[#   2]+0.246*[#   6]+0.246*[#  10]+0.246*[#  14]+
    |psi|^2 = 0.986
==== e(   6) =    -5.95843 eV ==== 
     psi = 0.249*[#   3]+0.249*[#   7]+0.249*[#  11]+0.249*[#  15]+
    |psi|^2 = 0.997
==== e(   7) =    -5.94893 eV ==== 
     psi = 0.249*[#   3]+0.249*[#   7]+0.249*[#  11]+0.249*[#  15]+
    |psi|^2 = 0.997
==== e(   8) =    -5.39203 eV ==== 
     psi = 0.248*[#   2]+0.248*[#   6]+0.248*[#  10]+0.248*[#  14]+
    |psi|^2 = 0.991

 k =   0.0000000000  0.3608439182  0.0000000000
==== e(   1) =   -17.74583 eV ==== 
     psi = 0.157*[#   1]+0.157*[#   5]+0.157*[#   9]+0.157*[#  13]+0.087*[#   4]+
          +0.087*[#   8]+0.087*[#  12]+0.087*[#  16]+
    |psi|^2 = 0.977
==== e(   2) =   -17.64778 eV ==== 
     psi = 0.160*[#   1]+0.160*[#   5]+0.160*[#   9]+0.160*[#  13]+0.086*[#   4]+
          +0.086*[#   8]+0.086*[#  12]+0.086*[#  16]+
    |psi|^2 = 0.984
==== e(   3) =    -9.59378 eV ==== 
     psi = 0.185*[#   4]+0.185*[#   8]+0.185*[#  12]+0.185*[#  16]+0.062*[#   1]+
          +0.062*[#   5]+0.062*[#   9]+0.062*[#  13]+
    |psi|^2 = 0.989
==== e(   4) =    -9.54670 eV ==== 
     psi = 0.186*[#   4]+0.186*[#   8]+0.186*[#  12]+0.186*[#  16]+0.062*[#   1]+
          +0.062*[#   5]+0.062*[#   9]+0.062*[#  13]+
    |psi|^2 = 0.992
==== e(   5) =    -6.13495 eV ==== 
     psi = 0.249*[#   3]+0.249*[#   7]+0.249*[#  11]+0.249*[#  15]+
    |psi|^2 = 0.997
==== e(   6) =    -6.12544 eV ==== 
     psi = 0.249*[#   3]+0.249*[#   7]+0.249*[#  11]+0.249*[#  15]+
    |psi|^2 = 0.997
==== e(   7) =    -5.80428 eV ==== 
     psi = 0.247*[#   2]+0.247*[#   6]+0.247*[#  10]+0.247*[#  14]+
    |psi|^2 = 0.988
==== e(   8) =    -5.07294 eV ==== 
     psi = 0.248*[#   2]+0.248*[#   6]+0.248*[#  10]+0.248*[#  14]+
    |psi|^2 = 0.993

 k =   0.0000000000  0.3849001795  0.0000000000
==== e(   1) =   -17.43823 eV ==== 
     psi = 0.152*[#   1]+0.152*[#   5]+0.152*[#   9]+0.152*[#  13]+0.092*[#   4]+
          +0.092*[#   8]+0.092*[#  12]+0.092*[#  16]+
    |psi|^2 = 0.978
==== e(   2) =   -17.34216 eV ==== 
     psi = 0.155*[#   1]+0.155*[#   5]+0.155*[#   9]+0.155*[#  13]+0.091*[#   4]+
          +0.091*[#   8]+0.091*[#  12]+0.091*[#  16]+
    |psi|^2 = 0.984
==== e(   3) =   -10.14081 eV ==== 
     psi = 0.181*[#   4]+0.181*[#   8]+0.181*[#  12]+0.181*[#  16]+0.066*[#   1]+
          +0.066*[#   5]+0.066*[#   9]+0.066*[#  13]+
    |psi|^2 = 0.989
==== e(   4) =   -10.09066 eV ==== 
     psi = 0.182*[#   4]+0.182*[#   8]+0.182*[#  12]+0.182*[#  16]+0.066*[#   1]+
          +0.066*[#   5]+0.066*[#   9]+0.066*[#  13]+
    |psi|^2 = 0.992
==== e(   5) =    -6.29623 eV ==== 
     psi = 0.249*[#   3]+0.249*[#   7]+0.249*[#  11]+0.249*[#  15]+
    |psi|^2 = 0.997
==== e(   6) =    -6.28657 eV ==== 
     psi = 0.249*[#   3]+0.249*[#   7]+0.249*[#  11]+0.249*[#  15]+
    |psi|^2 = 0.997
==== e(   7) =    -5.45793 eV ==== 
     psi = 0.248*[#   2]+0.248*[#   6]+0.248*[#  10]+0.248*[#  14]+
    |psi|^2 = 0.991
==== e(   8) =    -4.73973 eV ==== 
     psi = 0.249*[#   2]+0.249*[#   6]+0.249*[#  10]+0.249*[#  14]+
    |psi|^2 = 0.994

 k =   0.0000000000  0.4089564407  0.0000000000
==== e(   1) =   -17.11299 eV ==== 
     psi = 0.148*[#   1]+0.148*[#   5]+0.148*[#   9]+0.148*[#  13]+0.097*[#   4]+
          +0.097*[#   8]+0.097*[#  12]+0.097*[#  16]+
    |psi|^2 = 0.978
==== e(   2) =   -17.01896 eV ==== 
     psi = 0.150*[#   1]+0.150*[#   5]+0.150*[#   9]+0.150*[#  13]+0.096*[#   4]+
          +0.096*[#   8]+0.096*[#  12]+0.096*[#  16]+
    |psi|^2 = 0.984
==== e(   3) =   -10.68140 eV ==== 
     psi = 0.177*[#   4]+0.177*[#   8]+0.177*[#  12]+0.177*[#  16]+0.070*[#   1]+
          +0.070*[#   5]+0.070*[#   9]+0.070*[#  13]+
    |psi|^2 = 0.988
==== e(   4) =   -10.62816 eV ==== 
     psi = 0.178*[#   4]+0.178*[#   8]+0.178*[#  12]+0.178*[#  16]+0.069*[#   1]+
          +0.069*[#   5]+0.069*[#   9]+0.069*[#  13]+
    |psi|^2 = 0.991
==== e(   5) =    -6.44098 eV ==== 
     psi = 0.249*[#   3]+0.249*[#   7]+0.249*[#  11]+0.249*[#  15]+
    |psi|^2 = 0.996
==== e(   6) =    -6.43119 eV ==== 
     psi = 0.249*[#   3]+0.249*[#   7]+0.249*[#  11]+0.249*[#  15]+
    |psi|^2 = 0.996
==== e(   7) =    -5.09928 eV ==== 
     psi = 0.248*[#   2]+0.248*[#   6]+0.248*[#  10]+0.248*[#  14]+
    |psi|^2 = 0.993
==== e(   8) =    -4.39581 eV ==== 
     psi = 0.249*[#   2]+0.249*[#   6]+0.249*[#  10]+0.249*[#  14]+
    |psi|^2 = 0.995

 k =   0.0000000000  0.4330127019  0.0000000000
==== e(   1) =   -16.77092 eV ==== 
     psi = 0.144*[#   1]+0.144*[#   5]+0.144*[#   9]+0.144*[#  13]+0.101*[#   4]+
          +0.101*[#   8]+0.101*[#  12]+0.101*[#  16]+
    |psi|^2 = 0.979
==== e(   2) =   -16.67902 eV ==== 
     psi = 0.146*[#   1]+0.146*[#   5]+0.146*[#   9]+0.146*[#  13]+0.100*[#   4]+
          +0.100*[#   8]+0.100*[#  12]+0.100*[#  16]+
    |psi|^2 = 0.985
==== e(   3) =   -11.21305 eV ==== 
     psi = 0.174*[#   4]+0.174*[#   8]+0.174*[#  12]+0.174*[#  16]+0.073*[#   1]+
          +0.073*[#   5]+0.073*[#   9]+0.073*[#  13]+
    |psi|^2 = 0.987
==== e(   4) =   -11.15684 eV ==== 
     psi = 0.175*[#   4]+0.175*[#   8]+0.175*[#  12]+0.175*[#  16]+0.073*[#   1]+
          +0.073*[#   5]+0.073*[#   9]+0.073*[#  13]+
    |psi|^2 = 0.990
==== e(   5) =    -6.56825 eV ==== 
     psi = 0.249*[#   3]+0.249*[#   7]+0.249*[#  11]+0.249*[#  15]+
    |psi|^2 = 0.996
==== e(   6) =    -6.55838 eV ==== 
     psi = 0.249*[#   3]+0.249*[#   7]+0.249*[#  11]+0.249*[#  15]+
    |psi|^2 = 0.996
==== e(   7) =    -4.73292 eV ==== 
     psi = 0.249*[#   2]+0.249*[#   6]+0.249*[#  10]+0.249*[#  14]+
    |psi|^2 = 0.994
==== e(   8) =    -4.04598 eV ==== 
     psi = 0.249*[#   2]+0.249*[#   6]+0.249*[#  10]+0.249*[#  14]+
    |psi|^2 = 0.996

 k =   0.0000000000  0.4570689631  0.0000000000
==== e(   1) =   -16.41334 eV ==== 
     psi = 0.141*[#   1]+0.141*[#   5]+0.141*[#   9]+0.141*[#  13]+0.104*[#   4]+
          +0.104*[#   8]+0.104*[#  12]+0.104*[#  16]+
    |psi|^2 = 0.980
==== e(   2) =   -16.32359 eV ==== 
     psi = 0.143*[#   1]+0.143*[#   5]+0.143*[#   9]+0.143*[#  13]+0.103*[#   4]+
          +0.103*[#   8]+0.103*[#  12]+0.103*[#  16]+
    |psi|^2 = 0.986
==== e(   3) =   -11.73313 eV ==== 
     psi = 0.171*[#   4]+0.171*[#   8]+0.171*[#  12]+0.171*[#  16]+0.076*[#   1]+
          +0.076*[#   5]+0.076*[#   9]+0.076*[#  13]+
    |psi|^2 = 0.986
==== e(   4) =   -11.67406 eV ==== 
     psi = 0.172*[#   4]+0.172*[#   8]+0.172*[#  12]+0.172*[#  16]+0.076*[#   1]+
          +0.076*[#   5]+0.076*[#   9]+0.076*[#  13]+
    |psi|^2 = 0.989
==== e(   5) =    -6.67732 eV ==== 
     psi = 0.249*[#   3]+0.249*[#   7]+0.249*[#  11]+0.249*[#  15]+
    |psi|^2 = 0.996
==== e(   6) =    -6.66732 eV ==== 
     psi = 0.249*[#   3]+0.249*[#   7]+0.249*[#  11]+0.249*[#  15]+
    |psi|^2 = 0.996
==== e(   7) =    -4.36569 eV ==== 
     psi = 0.249*[#   2]+0.249*[#   6]+0.249*[#  10]+0.249*[#  14]+
    |psi|^2 = 0.995
==== e(   8) =    -3.69724 eV ==== 
     psi = 0.249*[#   2]+0.249*[#   6]+0.249*[#  10]+0.249*[#  14]+
    |psi|^2 = 0.997

 k =   0.0000000000  0.4811252243  0.0000000000
==== e(   1) =   -16.04246 eV ==== 
     psi = 0.139*[#   1]+0.139*[#   5]+0.139*[#   9]+0.139*[#  13]+0.106*[#   4]+
          +0.106*[#   8]+0.106*[#  12]+0.106*[#  16]+
    |psi|^2 = 0.982
==== e(   2) =   -15.95484 eV ==== 
     psi = 0.141*[#   1]+0.141*[#   5]+0.141*[#   9]+0.141*[#  13]+0.106*[#   4]+
          +0.106*[#   8]+0.106*[#  12]+0.106*[#  16]+
    |psi|^2 = 0.986
==== e(   3) =   -12.23831 eV ==== 
     psi = 0.169*[#   4]+0.169*[#   8]+0.169*[#  12]+0.169*[#  16]+0.077*[#   1]+
          +0.077*[#   5]+0.077*[#   9]+0.077*[#  13]+
    |psi|^2 = 0.985
==== e(   4) =   -12.17651 eV ==== 
     psi = 0.169*[#   4]+0.169*[#   8]+0.170*[#  12]+0.170*[#  16]+0.078*[#   1]+
          +0.078*[#   5]+0.078*[#   9]+0.078*[#  13]+
    |psi|^2 = 0.988
==== e(   5) =    -6.76725 eV ==== 
     psi = 0.249*[#   3]+0.249*[#   7]+0.249*[#  11]+0.249*[#  15]+
    |psi|^2 = 0.996
==== e(   6) =    -6.75715 eV ==== 
     psi = 0.249*[#   3]+0.249*[#   7]+0.249*[#  11]+0.249*[#  15]+
    |psi|^2 = 0.996
==== e(   7) =    -4.00821 eV ==== 
     psi = 0.249*[#   2]+0.249*[#   6]+0.249*[#  10]+0.249*[#  14]+
    |psi|^2 = 0.996
==== e(   8) =    -3.36018 eV ==== 
     psi = 0.249*[#   2]+0.249*[#   6]+0.249*[#  10]+0.249*[#  14]+
    |psi|^2 = 0.997

 k =   0.0000000000  0.5051814855  0.0000000000
==== e(   1) =   -15.66283 eV ==== 
     psi = 0.139*[#   1]+0.139*[#   5]+0.139*[#   9]+0.139*[#  13]+0.107*[#   4]+
          +0.107*[#   8]+0.107*[#  12]+0.107*[#  16]+
    |psi|^2 = 0.983
==== e(   2) =   -15.57724 eV ==== 
     psi = 0.140*[#   1]+0.140*[#   5]+0.140*[#   9]+0.140*[#  13]+0.107*[#   4]+
          +0.107*[#   8]+0.107*[#  12]+0.107*[#  16]+
    |psi|^2 = 0.988
==== e(   3) =   -12.72325 eV ==== 
     psi = 0.168*[#   4]+0.168*[#   8]+0.168*[#  12]+0.168*[#  16]+0.078*[#   1]+
          +0.078*[#   5]+0.078*[#   9]+0.078*[#  13]+
    |psi|^2 = 0.984
==== e(   4) =   -12.65896 eV ==== 
     psi = 0.169*[#   4]+0.169*[#   8]+0.169*[#  12]+0.169*[#  16]+0.078*[#   1]+
          +0.078*[#   5]+0.078*[#   9]+0.078*[#  13]+
    |psi|^2 = 0.987
==== e(   5) =    -6.83771 eV ==== 
     psi = 0.249*[#   3]+0.249*[#   7]+0.249*[#  11]+0.249*[#  15]+
    |psi|^2 = 0.996
==== e(   6) =    -6.82760 eV ==== 
     psi = 0.249*[#   3]+0.249*[#   7]+0.249*[#  11]+0.249*[#  15]+
    |psi|^2 = 0.996
==== e(   7) =    -3.67708 eV ==== 
     psi = 0.249*[#   2]+0.249*[#   6]+0.249*[#  10]+0.249*[#  14]+
    |psi|^2 = 0.997
==== e(   8) =    -3.05092 eV ==== 
     psi = 0.249*[#   2]+0.249*[#   6]+0.249*[#  10]+0.249*[#  14]+
    |psi|^2 = 0.997

 k =   0.0000000000  0.5292377468  0.0000000000
==== e(   1) =   -15.28568 eV ==== 
     psi = 0.141*[#   1]+0.141*[#   5]+0.141*[#   9]+0.141*[#  13]+0.105*[#   4]+
          +0.105*[#   8]+0.105*[#  12]+0.105*[#  16]+
    |psi|^2 = 0.986
==== e(   2) =   -15.20176 eV ==== 
     psi = 0.143*[#   1]+0.143*[#   5]+0.143*[#   9]+0.143*[#  13]+0.105*[#   4]+
          +0.105*[#   8]+0.105*[#  12]+0.105*[#  16]+
    |psi|^2 = 0.989
==== e(   3) =   -13.17605 eV ==== 
     psi = 0.170*[#   4]+0.170*[#   8]+0.170*[#  12]+0.170*[#  16]+0.075*[#   1]+
          +0.075*[#   5]+0.075*[#   9]+0.075*[#  13]+
    |psi|^2 = 0.981
==== e(   4) =   -13.10970 eV ==== 
     psi = 0.171*[#   4]+0.171*[#   8]+0.171*[#  12]+0.171*[#  16]+0.076*[#   1]+
          +0.076*[#   5]+0.076*[#   9]+0.076*[#  13]+
    |psi|^2 = 0.985
==== e(   5) =    -6.88828 eV ==== 
     psi = 0.249*[#   3]+0.249*[#   7]+0.249*[#  11]+0.249*[#  15]+
    |psi|^2 = 0.996
==== e(   6) =    -6.87817 eV ==== 
     psi = 0.249*[#   3]+0.249*[#   7]+0.249*[#  11]+0.249*[#  15]+
    |psi|^2 = 0.996
==== e(   7) =    -3.39769 eV ==== 
     psi = 0.249*[#   2]+0.249*[#   6]+0.249*[#  10]+0.249*[#  14]+
    |psi|^2 = 0.997
==== e(   8) =    -2.79301 eV ==== 
     psi = 0.249*[#   2]+0.249*[#   6]+0.249*[#  10]+0.249*[#  14]+
    |psi|^2 = 0.998

 k =   0.0000000000  0.5532940080  0.0000000000
==== e(   1) =   -14.94754 eV ==== 
     psi = 0.150*[#   1]+0.150*[#   5]+0.150*[#   9]+0.150*[#  13]+0.097*[#   4]+
          +0.097*[#   8]+0.097*[#  12]+0.097*[#  16]+
    |psi|^2 = 0.989
==== e(   2) =   -14.86452 eV ==== 
     psi = 0.151*[#   1]+0.151*[#   5]+0.151*[#   9]+0.151*[#  13]+0.097*[#   4]+
          +0.097*[#   8]+0.097*[#  12]+0.097*[#  16]+
    |psi|^2 = 0.992
==== e(   3) =   -13.55971 eV ==== 
     psi = 0.178*[#   4]+0.178*[#   8]+0.178*[#  12]+0.178*[#  16]+0.066*[#   1]+
          +0.066*[#   5]+0.066*[#   9]+0.066*[#  13]+
    |psi|^2 = 0.978
==== e(   4) =   -13.49230 eV ==== 
     psi = 0.179*[#   4]+0.179*[#   8]+0.179*[#  12]+0.179*[#  16]+0.067*[#   1]+
          +0.067*[#   5]+0.067*[#   9]+0.067*[#  13]+
    |psi|^2 = 0.983
==== e(   5) =    -6.91871 eV ==== 
     psi = 0.249*[#   3]+0.249*[#   7]+0.249*[#  11]+0.249*[#  15]+
    |psi|^2 = 0.996
==== e(   6) =    -6.90863 eV ==== 
     psi = 0.249*[#   3]+0.249*[#   7]+0.249*[#  11]+0.249*[#  15]+
    |psi|^2 = 0.996
==== e(   7) =    -3.20506 eV ==== 
     psi = 0.249*[#   2]+0.249*[#   6]+0.249*[#  10]+0.249*[#  14]+
    |psi|^2 = 0.998
==== e(   8) =    -2.61737 eV ==== 
     psi = 0.249*[#   2]+0.249*[#   6]+0.249*[#  10]+0.249*[#  14]+
    |psi|^2 = 0.998

 k =   0.0000000000 -0.5773502692  0.0000000000
==== e(   1) =   -14.78155 eV ==== 
     psi = 0.160*[#   1]+0.160*[#   5]+0.160*[#   9]+0.160*[#  13]+0.088*[#   4]+
          +0.088*[#   8]+0.088*[#  12]+0.088*[#  16]+
    |psi|^2 = 0.992
==== e(   2) =   -14.69834 eV ==== 
     psi = 0.161*[#   1]+0.161*[#   5]+0.161*[#   9]+0.161*[#  13]+0.087*[#   4]+
          +0.087*[#   8]+0.087*[#  12]+0.087*[#  16]+
    |psi|^2 = 0.994
==== e(   3) =   -13.74096 eV ==== 
     psi = 0.188*[#   4]+0.188*[#   8]+0.188*[#  12]+0.188*[#  16]+0.056*[#   1]+
          +0.056*[#   5]+0.056*[#   9]+0.056*[#  13]+
    |psi|^2 = 0.976
==== e(   4) =   -13.67364 eV ==== 
     psi = 0.189*[#   4]+0.189*[#   8]+0.189*[#  12]+0.189*[#  16]+0.057*[#   1]+
          +0.057*[#   5]+0.057*[#   9]+0.057*[#  13]+
    |psi|^2 = 0.981
==== e(   5) =    -6.92897 eV ==== 
     psi = 0.249*[#   3]+0.249*[#   7]+0.249*[#  11]+0.249*[#  15]+
    |psi|^2 = 0.996
==== e(   6) =    -6.91881 eV ==== 
     psi = 0.249*[#   3]+0.249*[#   7]+0.249*[#  11]+0.249*[#  15]+
    |psi|^2 = 0.996
==== e(   7) =    -3.13534 eV ==== 
     psi = 0.249*[#   2]+0.249*[#   6]+0.249*[#  10]+0.249*[#  14]+
    |psi|^2 = 0.998
==== e(   8) =    -2.55432 eV ==== 
     psi = 0.249*[#   2]+0.249*[#   6]+0.249*[#  10]+0.249*[#  14]+
    |psi|^2 = 0.998

 k =   0.0208333333  0.0360843918  0.0000000000
==== e(   1) =   -19.99232 eV ==== 
     psi = 0.242*[#   1]+0.242*[#   5]+0.242*[#   9]+0.242*[#  13]+0.002*[#   4]+
          +0.002*[#   8]+0.002*[#  12]+0.002*[#  16]+
    |psi|^2 = 0.979
==== e(   2) =   -19.87900 eV ==== 
     psi = 0.243*[#   1]+0.243*[#   5]+0.243*[#   9]+0.243*[#  13]+0.002*[#   4]+
          +0.002*[#   8]+0.002*[#  12]+0.002*[#  16]+
    |psi|^2 = 0.986
==== e(   3) =    -8.45051 eV ==== 
     psi = 0.237*[#   2]+0.237*[#   6]+0.237*[#  10]+0.237*[#  14]+
    |psi|^2 = 0.949
==== e(   4) =    -7.64013 eV ==== 
     psi = 0.241*[#   2]+0.241*[#   6]+0.241*[#  10]+0.241*[#  14]+
    |psi|^2 = 0.965
==== e(   5) =    -3.69351 eV ==== 
     psi = 0.190*[#   4]+0.190*[#  16]+0.190*[#   8]+0.190*[#  12]+0.058*[#   7]+
          +0.058*[#  11]+0.057*[#   3]+0.057*[#  15]+0.002*[#   1]+0.002*[#   5]+
          +0.002*[#   9]+0.002*[#  13]+
    |psi|^2 = 0.997
==== e(   6) =    -3.68305 eV ==== 
     psi = 0.185*[#  12]+0.185*[#   8]+0.184*[#  16]+0.184*[#   4]+0.063*[#   3]+
          +0.063*[#  15]+0.062*[#   7]+0.063*[#  11]+0.002*[#   1]+0.002*[#   5]+
          +0.002*[#   9]+0.002*[#  13]+
    |psi|^2 = 0.997
==== e(   7) =    -3.63297 eV ==== 
     psi = 0.192*[#   7]+0.192*[#  11]+0.191*[#   3]+0.191*[#  15]+0.058*[#   4]+
          +0.058*[#  16]+0.057*[#   8]+0.057*[#  12]+
    |psi|^2 = 0.997
==== e(   8) =    -3.62525 eV ==== 
     psi = 0.186*[#   3]+0.186*[#  15]+0.185*[#   7]+0.185*[#  11]+0.064*[#   8]+
          +0.064*[#  12]+0.063*[#   4]+0.063*[#  16]+
    |psi|^2 = 0.997

 k =   0.0208333333  0.0601406530  0.0000000000
==== e(   1) =   -19.95128 eV ==== 
     psi = 0.238*[#   1]+0.238*[#   5]+0.238*[#   9]+0.238*[#  13]+0.006*[#   4]+
          +0.006*[#   8]+0.006*[#  12]+0.006*[#  16]+
    |psi|^2 = 0.979
==== e(   2) =   -19.83825 eV ==== 
     psi = 0.240*[#   1]+0.240*[#   5]+0.240*[#   9]+0.240*[#  13]+0.005*[#   4]+
          +0.005*[#   8]+0.005*[#  12]+0.005*[#  16]+
    |psi|^2 = 0.986
==== e(   3) =    -8.40108 eV ==== 
     psi = 0.237*[#   2]+0.237*[#   6]+0.237*[#  10]+0.237*[#  14]+
    |psi|^2 = 0.950
==== e(   4) =    -7.59193 eV ==== 
     psi = 0.241*[#   2]+0.241*[#   6]+0.241*[#  10]+0.241*[#  14]+
    |psi|^2 = 0.966
==== e(   5) =    -3.85737 eV ==== 
     psi = 0.221*[#   4]+0.221*[#  16]+0.221*[#   8]+0.221*[#  12]+0.025*[#   7]+
          +0.025*[#  11]+0.024*[#   3]+0.024*[#  15]+0.004*[#   1]+0.004*[#   5]+
          +0.004*[#   9]+0.004*[#  13]+
    |psi|^2 = 0.997
==== e(   6) =    -3.84530 eV ==== 
     psi = 0.220*[#  12]+0.220*[#   8]+0.220*[#  16]+0.219*[#   4]+0.026*[#   3]+
          +0.026*[#  15]+0.026*[#   7]+0.026*[#  11]+0.004*[#   1]+0.004*[#   5]+
          +0.004*[#   9]+0.004*[#  13]+
    |psi|^2 = 0.997
==== e(   7) =    -3.72057 eV ==== 
     psi = 0.225*[#   7]+0.225*[#  11]+0.224*[#   3]+0.224*[#  15]+0.025*[#   4]+
          +0.025*[#  16]+0.025*[#   8]+0.025*[#  12]+
    |psi|^2 = 0.997
==== e(   8) =    -3.71321 eV ==== 
     psi = 0.223*[#   3]+0.223*[#  15]+0.223*[#   7]+0.223*[#  11]+0.026*[#   8]+
          +0.026*[#  12]+0.026*[#   4]+0.026*[#  16]+
    |psi|^2 = 0.997

 k =   0.0208333333  0.0841969143  0.0000000000
==== e(   1) =   -19.88976 eV ==== 
     psi = 0.233*[#   1]+0.233*[#   5]+0.233*[#   9]+0.233*[#  13]+0.011*[#   4]+
          +0.011*[#   8]+0.011*[#  12]+0.011*[#  16]+
    |psi|^2 = 0.979
==== e(   2) =   -19.77716 eV ==== 
     psi = 0.235*[#   1]+0.235*[#   5]+0.235*[#   9]+0.235*[#  13]+0.010*[#   4]+
          +0.010*[#   8]+0.010*[#  12]+0.010*[#  16]+
    |psi|^2 = 0.986
==== e(   3) =    -8.32699 eV ==== 
     psi = 0.238*[#   2]+0.238*[#   6]+0.238*[#  10]+0.238*[#  14]+
    |psi|^2 = 0.952
==== e(   4) =    -7.51972 eV ==== 
     psi = 0.241*[#   2]+0.241*[#   6]+0.241*[#  10]+0.241*[#  14]+
    |psi|^2 = 0.967
==== e(   5) =    -4.09500 eV ==== 
     psi = 0.230*[#   4]+0.230*[#   8]+0.230*[#  16]+0.230*[#  12]+0.012*[#   7]+
          +0.012*[#  11]+0.012*[#   3]+0.012*[#  15]+0.007*[#   1]+0.007*[#   5]+
          +0.007*[#   9]+0.007*[#  13]+
    |psi|^2 = 0.997
==== e(   6) =    -4.08117 eV ==== 
     psi = 0.230*[#  12]+0.230*[#   8]+0.230*[#  16]+0.229*[#   4]+0.013*[#   3]+
          +0.013*[#  15]+0.013*[#   7]+0.013*[#  11]+0.007*[#   1]+0.007*[#   5]+
          +0.007*[#   9]+0.007*[#  13]+
    |psi|^2 = 0.997
==== e(   7) =    -3.84675 eV ==== 
     psi = 0.237*[#   7]+0.237*[#  11]+0.236*[#   3]+0.236*[#  15]+0.013*[#   4]+
          +0.013*[#  16]+0.013*[#   8]+0.013*[#  12]+
    |psi|^2 = 0.997
==== e(   8) =    -3.83929 eV ==== 
     psi = 0.236*[#   3]+0.236*[#  15]+0.236*[#   7]+0.236*[#  11]+0.013*[#   8]+
          +0.013*[#  12]+0.013*[#   4]+0.013*[#  16]+
    |psi|^2 = 0.997

 k =   0.0208333333  0.1082531755  0.0000000000
==== e(   1) =   -19.80778 eV ==== 
     psi = 0.227*[#   1]+0.227*[#   5]+0.227*[#   9]+0.227*[#  13]+0.017*[#   4]+
          +0.017*[#   8]+0.017*[#  12]+0.017*[#  16]+
    |psi|^2 = 0.979
==== e(   2) =   -19.69576 eV ==== 
     psi = 0.229*[#   1]+0.229*[#   5]+0.229*[#   9]+0.229*[#  13]+0.016*[#   4]+
          +0.016*[#   8]+0.016*[#  12]+0.016*[#  16]+
    |psi|^2 = 0.985
==== e(   3) =    -8.22839 eV ==== 
     psi = 0.238*[#   2]+0.238*[#   6]+0.238*[#  10]+0.238*[#  14]+
    |psi|^2 = 0.954
==== e(   4) =    -7.42363 eV ==== 
     psi = 0.242*[#   2]+0.242*[#   6]+0.242*[#  10]+0.242*[#  14]+
    |psi|^2 = 0.969
==== e(   5) =    -4.39895 eV ==== 
     psi = 0.232*[#   4]+0.232*[#   8]+0.231*[#  16]+0.231*[#  12]+0.011*[#   1]+
          +0.011*[#   5]+0.011*[#   9]+0.011*[#  13]+0.007*[#   7]+0.007*[#  11]+
          +0.007*[#   3]+0.007*[#  15]+
    |psi|^2 = 0.997
==== e(   6) =    -4.38305 eV ==== 
     psi = 0.232*[#  12]+0.231*[#   4]+0.231*[#   8]+0.232*[#  16]+0.011*[#   1]+
          +0.011*[#   5]+0.011*[#   9]+0.011*[#  13]+0.007*[#   3]+0.007*[#  15]+
          +0.007*[#   7]+0.007*[#  11]+
    |psi|^2 = 0.997
==== e(   7) =    -4.00523 eV ==== 
     psi = 0.242*[#   7]+0.242*[#  11]+0.242*[#   3]+0.242*[#  15]+0.007*[#   4]+
          +0.007*[#  16]+0.007*[#   8]+0.007*[#  12]+
    |psi|^2 = 0.997
==== e(   8) =    -3.99753 eV ==== 
     psi = 0.242*[#   3]+0.242*[#  15]+0.242*[#   7]+0.242*[#  11]+0.007*[#   8]+
          +0.007*[#  12]+0.007*[#   4]+0.007*[#  16]+
    |psi|^2 = 0.997

 k =   0.0208333333  0.1323094367  0.0000000000
==== e(   1) =   -19.70542 eV ==== 
     psi = 0.220*[#   1]+0.220*[#   5]+0.220*[#   9]+0.220*[#  13]+0.024*[#   4]+
          +0.024*[#   8]+0.024*[#  12]+0.024*[#  16]+
    |psi|^2 = 0.979
==== e(   2) =   -19.59412 eV ==== 
     psi = 0.223*[#   1]+0.223*[#   5]+0.223*[#   9]+0.223*[#  13]+0.023*[#   4]+
          +0.023*[#   8]+0.023*[#  12]+0.023*[#  16]+
    |psi|^2 = 0.985
==== e(   3) =    -8.10542 eV ==== 
     psi = 0.239*[#   2]+0.239*[#   6]+0.239*[#  10]+0.239*[#  14]+
    |psi|^2 = 0.957
==== e(   4) =    -7.30380 eV ==== 
     psi = 0.242*[#   2]+0.242*[#   6]+0.242*[#  10]+0.242*[#  14]+
    |psi|^2 = 0.971
==== e(   5) =    -4.76047 eV ==== 
     psi = 0.230*[#   4]+0.230*[#   8]+0.230*[#  12]+0.230*[#  16]+0.015*[#   1]+
          +0.015*[#   5]+0.015*[#   9]+0.015*[#  13]+0.004*[#   7]+0.004*[#  11]+
          +0.004*[#   3]+0.004*[#  15]+
    |psi|^2 = 0.996
==== e(   6) =    -4.74211 eV ==== 
     psi = 0.230*[#  12]+0.230*[#  16]+0.230*[#   4]+0.230*[#   8]+0.015*[#   1]+
          +0.015*[#   5]+0.015*[#   9]+0.015*[#  13]+0.004*[#   3]+0.004*[#  15]+
          +0.004*[#   7]+0.004*[#  11]+
    |psi|^2 = 0.997
==== e(   7) =    -4.18922 eV ==== 
     psi = 0.245*[#   7]+0.245*[#  11]+0.245*[#   3]+0.245*[#  15]+0.004*[#   4]+
          +0.004*[#   8]+0.004*[#  12]+0.004*[#  16]+
    |psi|^2 = 0.997
==== e(   8) =    -4.18123 eV ==== 
     psi = 0.245*[#   3]+0.245*[#   7]+0.245*[#  15]+0.245*[#  11]+0.004*[#   4]+
          +0.004*[#   8]+0.004*[#  12]+0.004*[#  16]+
    |psi|^2 = 0.997

 k =   0.0208333333  0.1563656979  0.0000000000
==== e(   1) =   -19.58275 eV ==== 
     psi = 0.213*[#   1]+0.213*[#   5]+0.213*[#   9]+0.213*[#  13]+0.031*[#   4]+
          +0.031*[#   8]+0.031*[#  12]+0.031*[#  16]+
    |psi|^2 = 0.978
==== e(   2) =   -19.47230 eV ==== 
     psi = 0.216*[#   1]+0.216*[#   5]+0.216*[#   9]+0.216*[#  13]+0.030*[#   4]+
          +0.030*[#   8]+0.030*[#  12]+0.030*[#  16]+
    |psi|^2 = 0.985
==== e(   3) =    -7.95829 eV ==== 
     psi = 0.240*[#   2]+0.240*[#   6]+0.240*[#  10]+0.240*[#  14]+
    |psi|^2 = 0.959
==== e(   4) =    -7.16053 eV ==== 
     psi = 0.243*[#   2]+0.243*[#   6]+0.243*[#  10]+0.243*[#  14]+
    |psi|^2 = 0.974
==== e(   5) =    -5.17043 eV ==== 
     psi = 0.226*[#   4]+0.226*[#   8]+0.226*[#  12]+0.226*[#  16]+0.020*[#   1]+
          +0.020*[#   5]+0.020*[#   9]+0.020*[#  13]+0.002*[#   3]+0.003*[#   7]+
          +0.003*[#  11]+0.002*[#  15]+
    |psi|^2 = 0.996
==== e(   6) =    -5.14943 eV ==== 
     psi = 0.226*[#  12]+0.227*[#  16]+0.226*[#   4]+0.226*[#   8]+0.020*[#   1]+
          +0.020*[#   5]+0.020*[#   9]+0.020*[#  13]+0.003*[#   3]+0.003*[#   7]+
          +0.003*[#  11]+0.003*[#  15]+
    |psi|^2 = 0.997
==== e(   7) =    -4.39206 eV ==== 
     psi = 0.246*[#  11]+0.246*[#   3]+0.246*[#   7]+0.246*[#  15]+0.003*[#   4]+
          +0.003*[#   8]+0.003*[#  12]+0.003*[#  16]+
    |psi|^2 = 0.997
==== e(   8) =    -4.38377 eV ==== 
     psi = 0.246*[#   3]+0.246*[#   7]+0.246*[#  11]+0.246*[#  15]+0.003*[#   4]+
          +0.003*[#   8]+0.003*[#  12]+0.003*[#  16]+
    |psi|^2 = 0.997

 k =   0.0208333333  0.1804219591  0.0000000000
==== e(   1) =   -19.43984 eV ==== 
     psi = 0.205*[#   1]+0.205*[#   5]+0.205*[#   9]+0.205*[#  13]+0.039*[#   4]+
          +0.039*[#   8]+0.039*[#  12]+0.039*[#  16]+
    |psi|^2 = 0.978
==== e(   2) =   -19.33039 eV ==== 
     psi = 0.208*[#   1]+0.208*[#   5]+0.208*[#   9]+0.208*[#  13]+0.037*[#   4]+
          +0.037*[#   8]+0.037*[#  12]+0.037*[#  16]+
    |psi|^2 = 0.985
==== e(   3) =    -7.78727 eV ==== 
     psi = 0.240*[#   2]+0.240*[#   6]+0.240*[#  10]+0.240*[#  14]+
    |psi|^2 = 0.963
==== e(   4) =    -6.99408 eV ==== 
     psi = 0.244*[#   2]+0.244*[#   6]+0.244*[#  10]+0.244*[#  14]+
    |psi|^2 = 0.976
==== e(   5) =    -5.62025 eV ==== 
     psi = 0.222*[#   4]+0.222*[#   8]+0.222*[#  12]+0.221*[#  16]+0.026*[#   1]+
          +0.025*[#   5]+0.025*[#   9]+0.026*[#  13]+0.002*[#   3]+0.002*[#   7]+
          +0.002*[#  11]+0.002*[#  15]+
    |psi|^2 = 0.995
==== e(   6) =    -5.59637 eV ==== 
     psi = 0.222*[#   4]+0.222*[#  12]+0.222*[#  16]+0.222*[#   8]+0.025*[#   1]+
          +0.025*[#   5]+0.025*[#   9]+0.025*[#  13]+0.002*[#   3]+0.002*[#   7]+
          +0.002*[#  11]+0.002*[#  15]+
    |psi|^2 = 0.996
==== e(   7) =    -4.60747 eV ==== 
     psi = 0.247*[#   3]+0.247*[#   7]+0.247*[#  11]+0.247*[#  15]+0.002*[#   4]+
          +0.002*[#   8]+0.002*[#  12]+0.002*[#  16]+
    |psi|^2 = 0.997
==== e(   8) =    -4.59882 eV ==== 
     psi = 0.247*[#   3]+0.247*[#   7]+0.247*[#  11]+0.247*[#  15]+0.002*[#   4]+
          +0.002*[#   8]+0.002*[#  12]+0.002*[#  16]+
    |psi|^2 = 0.997

 k =   0.0208333333  0.2044782203  0.0000000000
==== e(   1) =   -19.27683 eV ==== 
     psi = 0.198*[#   1]+0.198*[#   5]+0.198*[#   9]+0.198*[#  13]+0.046*[#   4]+
          +0.046*[#   8]+0.046*[#  12]+0.046*[#  16]+
    |psi|^2 = 0.978
==== e(   2) =   -19.16850 eV ==== 
     psi = 0.201*[#   1]+0.201*[#   5]+0.201*[#   9]+0.201*[#  13]+0.045*[#   4]+
          +0.045*[#   8]+0.045*[#  12]+0.045*[#  16]+
    |psi|^2 = 0.984
==== e(   3) =    -7.59272 eV ==== 
     psi = 0.241*[#   2]+0.241*[#   6]+0.241*[#  10]+0.241*[#  14]+
    |psi|^2 = 0.966
==== e(   4) =    -6.80486 eV ==== 
     psi = 0.244*[#   2]+0.244*[#   6]+0.244*[#  10]+0.244*[#  14]+
    |psi|^2 = 0.979
==== e(   5) =    -6.10180 eV ==== 
     psi = 0.217*[#   4]+0.217*[#   8]+0.217*[#  12]+0.217*[#  16]+0.031*[#   1]+
          +0.031*[#   5]+0.031*[#   9]+0.031*[#  13]+0.001*[#   3]+0.001*[#   7]+
          +0.001*[#  11]+0.001*[#  15]+
    |psi|^2 = 0.994
==== e(   6) =    -6.07494 eV ==== 
     psi = 0.217*[#   4]+0.217*[#  12]+0.217*[#  16]+0.217*[#   8]+0.030*[#   1]+
          +0.030*[#   5]+0.030*[#   9]+0.030*[#  13]+0.001*[#   3]+0.001*[#   7]+
          +0.001*[#  11]+0.001*[#  15]+
    |psi|^2 = 0.996
==== e(   7) =    -4.82979 eV ==== 
     psi = 0.248*[#   3]+0.248*[#   7]+0.248*[#  11]+0.248*[#  15]+0.001*[#   4]+
          +0.001*[#   8]+0.001*[#  12]+0.001*[#  16]+
    |psi|^2 = 0.997
==== e(   8) =    -4.82082 eV ==== 
     psi = 0.248*[#   3]+0.248*[#   7]+0.248*[#  11]+0.248*[#  15]+0.001*[#   4]+
          +0.001*[#   8]+0.001*[#  12]+0.001*[#  16]+
    |psi|^2 = 0.997

 k =   0.0208333333  0.2285344816  0.0000000000
==== e(   1) =   -19.09382 eV ==== 
     psi = 0.191*[#   1]+0.191*[#   5]+0.190*[#   9]+0.190*[#  13]+0.053*[#   4]+
          +0.053*[#   8]+0.053*[#  12]+0.053*[#  16]+
    |psi|^2 = 0.977
==== e(   2) =   -18.98675 eV ==== 
     psi = 0.193*[#   1]+0.193*[#   5]+0.193*[#   9]+0.193*[#  13]+0.052*[#   4]+
          +0.052*[#   8]+0.052*[#  12]+0.052*[#  16]+
    |psi|^2 = 0.984
==== e(   3) =    -7.37500 eV ==== 
     psi = 0.242*[#   2]+0.242*[#   6]+0.242*[#  10]+0.242*[#  14]+
    |psi|^2 = 0.970
==== e(   4) =    -6.60798 eV ==== 
     psi = 0.212*[#   8]+0.211*[#  12]+0.211*[#   4]+0.211*[#  16]+0.036*[#   1]+
          +0.036*[#  13]+0.036*[#   5]+0.036*[#   9]+
    |psi|^2 = 0.993
==== e(   5) =    -6.59559 eV ==== 
     psi = 0.216*[#   2]+0.216*[#   6]+0.216*[#  10]+0.216*[#  14]+0.026*[#   4]+
          +0.026*[#  16]+0.026*[#   8]+0.026*[#  12]+0.004*[#   5]+0.004*[#   9]+
          +0.004*[#   1]+0.004*[#  13]+
    |psi|^2 = 0.985
==== e(   6) =    -6.57573 eV ==== 
     psi = 0.187*[#   4]+0.187*[#   8]+0.187*[#  12]+0.187*[#  16]+0.032*[#   1]+
          +0.032*[#   5]+0.032*[#   9]+0.032*[#  13]+0.028*[#   2]+0.028*[#   6]+
          +0.028*[#  10]+0.028*[#  14]+
    |psi|^2 = 0.991
==== e(   7) =    -5.05417 eV ==== 
     psi = 0.248*[#   3]+0.248*[#   7]+0.248*[#  11]+0.248*[#  15]+
    |psi|^2 = 0.997
==== e(   8) =    -5.04493 eV ==== 
     psi = 0.248*[#   3]+0.248*[#   7]+0.248*[#  11]+0.248*[#  15]+
    |psi|^2 = 0.997

 k =   0.0208333333  0.2525907428  0.0000000000
==== e(   1) =   -18.89097 eV ==== 
     psi = 0.184*[#   1]+0.184*[#   5]+0.184*[#   9]+0.184*[#  13]+0.060*[#   4]+
          +0.060*[#   8]+0.060*[#  12]+0.060*[#  16]+
    |psi|^2 = 0.977
==== e(   2) =   -18.78528 eV ==== 
     psi = 0.186*[#   1]+0.186*[#   5]+0.186*[#   9]+0.186*[#  13]+0.059*[#   4]+
          +0.059*[#   8]+0.059*[#  12]+0.059*[#  16]+
    |psi|^2 = 0.984
==== e(   3) =    -7.14132 eV ==== 
     psi = 0.139*[#   2]+0.139*[#   6]+0.139*[#  10]+0.139*[#  14]+0.090*[#   4]+
          +0.090*[#   8]+0.090*[#  12]+0.090*[#  16]+0.017*[#   1]+0.017*[#   5]+
          +0.017*[#   9]+0.017*[#  13]+
    |psi|^2 = 0.982
==== e(   4) =    -7.12581 eV ==== 
     psi = 0.117*[#   4]+0.117*[#   8]+0.117*[#  12]+0.117*[#  16]+0.104*[#   2]+
          +0.104*[#   6]+0.104*[#  10]+0.104*[#  14]+0.025*[#   1]+0.025*[#  13]+
          +0.024*[#   5]+0.024*[#   9]+
    |psi|^2 = 0.983
==== e(   5) =    -7.09964 eV ==== 
     psi = 0.207*[#   4]+0.207*[#  12]+0.207*[#  16]+0.207*[#   8]+0.041*[#   5]+
          +0.041*[#   9]+0.041*[#   1]+0.041*[#  13]+
    |psi|^2 = 0.995
==== e(   6) =    -6.35969 eV ==== 
     psi = 0.246*[#   2]+0.246*[#   6]+0.246*[#  10]+0.246*[#  14]+
    |psi|^2 = 0.984
==== e(   7) =    -5.27638 eV ==== 
     psi = 0.248*[#   3]+0.248*[#   7]+0.248*[#  11]+0.248*[#  15]+
    |psi|^2 = 0.997
==== e(   8) =    -5.26686 eV ==== 
     psi = 0.248*[#   3]+0.248*[#   7]+0.248*[#  11]+0.248*[#  15]+
    |psi|^2 = 0.997

 k =   0.0208333333  0.2766470040  0.0000000000
==== e(   1) =   -18.66846 eV ==== 
     psi = 0.177*[#   1]+0.177*[#   5]+0.177*[#   9]+0.177*[#  13]+0.067*[#   4]+
          +0.067*[#   8]+0.067*[#  12]+0.067*[#  16]+
    |psi|^2 = 0.977
==== e(   2) =   -18.56429 eV ==== 
     psi = 0.180*[#   1]+0.180*[#   5]+0.180*[#   9]+0.180*[#  13]+0.066*[#   4]+
          +0.066*[#   8]+0.066*[#  12]+0.066*[#  16]+
    |psi|^2 = 0.984
==== e(   3) =    -7.67012 eV ==== 
     psi = 0.201*[#   4]+0.201*[#   8]+0.201*[#  12]+0.201*[#  16]+0.046*[#   1]+
          +0.046*[#   5]+0.046*[#   9]+0.046*[#  13]+
    |psi|^2 = 0.992
==== e(   4) =    -7.63397 eV ==== 
     psi = 0.202*[#   4]+0.202*[#   8]+0.202*[#  12]+0.202*[#  16]+0.046*[#   1]+
          +0.046*[#   5]+0.046*[#   9]+0.046*[#  13]+
    |psi|^2 = 0.994
==== e(   5) =    -6.87213 eV ==== 
     psi = 0.244*[#   2]+0.244*[#   6]+0.244*[#  10]+0.244*[#  14]+
    |psi|^2 = 0.977
==== e(   6) =    -6.10521 eV ==== 
     psi = 0.246*[#   2]+0.246*[#   6]+0.246*[#  10]+0.246*[#  14]+
    |psi|^2 = 0.986
==== e(   7) =    -5.49295 eV ==== 
     psi = 0.248*[#   3]+0.248*[#   7]+0.248*[#  11]+0.248*[#  15]+
    |psi|^2 = 0.997
==== e(   8) =    -5.48320 eV ==== 
     psi = 0.248*[#   3]+0.248*[#   7]+0.248*[#  11]+0.248*[#  15]+
    |psi|^2 = 0.997

 k =   0.0208333333  0.3007032652  0.0000000000
==== e(   1) =   -18.42652 eV ==== 
     psi = 0.171*[#   1]+0.171*[#   5]+0.171*[#   9]+0.171*[#  13]+0.073*[#   4]+
          +0.073*[#   8]+0.073*[#  12]+0.073*[#  16]+
    |psi|^2 = 0.977
==== e(   2) =   -18.32397 eV ==== 
     psi = 0.173*[#   1]+0.173*[#   5]+0.173*[#   9]+0.173*[#  13]+0.072*[#   4]+
          +0.072*[#   8]+0.072*[#  12]+0.072*[#  16]+
    |psi|^2 = 0.984
==== e(   3) =    -8.21577 eV ==== 
     psi = 0.197*[#   4]+0.197*[#   8]+0.196*[#  12]+0.196*[#  16]+0.051*[#   1]+
          +0.051*[#   5]+0.051*[#   9]+0.051*[#  13]+
    |psi|^2 = 0.991
==== e(   4) =    -8.17651 eV ==== 
     psi = 0.198*[#   4]+0.197*[#   8]+0.198*[#  12]+0.198*[#  16]+0.051*[#   1]+
          +0.051*[#   5]+0.051*[#   9]+0.051*[#  13]+
    |psi|^2 = 0.994
==== e(   5) =    -6.58870 eV ==== 
     psi = 0.245*[#   2]+0.245*[#   6]+0.245*[#  10]+0.245*[#  14]+
    |psi|^2 = 0.981
==== e(   6) =    -5.83065 eV ==== 
     psi = 0.247*[#   2]+0.247*[#   6]+0.247*[#  10]+0.247*[#  14]+
    |psi|^2 = 0.989
==== e(   7) =    -5.70092 eV ==== 
     psi = 0.248*[#   3]+0.248*[#   7]+0.248*[#  11]+0.248*[#  15]+
    |psi|^2 = 0.997
==== e(   8) =    -5.69098 eV ==== 
     psi = 0.248*[#   3]+0.248*[#   7]+0.248*[#  11]+0.248*[#  15]+
    |psi|^2 = 0.997

 k =   0.0208333333  0.3247595264  0.0000000000
==== e(   1) =   -18.16538 eV ==== 
     psi = 0.165*[#   1]+0.165*[#   5]+0.165*[#   9]+0.165*[#  13]+0.079*[#   4]+
          +0.079*[#   8]+0.079*[#  12]+0.079*[#  16]+
    |psi|^2 = 0.977
==== e(   2) =   -18.06457 eV ==== 
     psi = 0.168*[#   1]+0.168*[#   5]+0.168*[#   9]+0.168*[#  13]+0.078*[#   4]+
          +0.078*[#   8]+0.078*[#  12]+0.078*[#  16]+
    |psi|^2 = 0.984
==== e(   3) =    -8.76567 eV ==== 
     psi = 0.192*[#   4]+0.192*[#   8]+0.192*[#  12]+0.192*[#  16]+0.056*[#   1]+
          +0.056*[#   5]+0.055*[#   9]+0.056*[#  13]+
    |psi|^2 = 0.990
==== e(   4) =    -8.72333 eV ==== 
     psi = 0.193*[#   4]+0.193*[#   8]+0.193*[#  12]+0.193*[#  16]+0.055*[#   1]+
          +0.055*[#   5]+0.055*[#   9]+0.055*[#  13]+
    |psi|^2 = 0.993
==== e(   5) =    -6.28518 eV ==== 
     psi = 0.246*[#   2]+0.246*[#   6]+0.246*[#  10]+0.246*[#  14]+
    |psi|^2 = 0.984
==== e(   6) =    -5.89805 eV ==== 
     psi = 0.248*[#   3]+0.248*[#   7]+0.248*[#  11]+0.248*[#  15]+
    |psi|^2 = 0.997
==== e(   7) =    -5.88789 eV ==== 
     psi = 0.248*[#   3]+0.248*[#   7]+0.248*[#  11]+0.248*[#  15]+
    |psi|^2 = 0.997
==== e(   8) =    -5.53691 eV ==== 
     psi = 0.248*[#   2]+0.247*[#   6]+0.247*[#  10]+0.248*[#  14]+
    |psi|^2 = 0.991

 k =   0.0208333333  0.3488157876  0.0000000000
==== e(   1) =   -17.88536 eV ==== 
     psi = 0.159*[#   1]+0.159*[#   5]+0.159*[#   9]+0.159*[#  13]+0.084*[#   4]+
          +0.084*[#   8]+0.084*[#  12]+0.084*[#  16]+
    |psi|^2 = 0.977
==== e(   2) =   -17.78640 eV ==== 
     psi = 0.162*[#   1]+0.162*[#   5]+0.162*[#   9]+0.162*[#  13]+0.083*[#   4]+
          +0.083*[#   8]+0.083*[#  12]+0.083*[#  16]+
    |psi|^2 = 0.984
==== e(   3) =    -9.31631 eV ==== 
     psi = 0.187*[#   4]+0.187*[#   8]+0.187*[#  12]+0.187*[#  16]+0.060*[#   1]+
          +0.060*[#   5]+0.060*[#   9]+0.060*[#  13]+
    |psi|^2 = 0.990
==== e(   4) =    -9.27086 eV ==== 
     psi = 0.188*[#   4]+0.188*[#   8]+0.188*[#  12]+0.188*[#  16]+0.060*[#   1]+
          +0.060*[#   5]+0.060*[#   9]+0.060*[#  13]+
    |psi|^2 = 0.992
==== e(   5) =    -6.08211 eV ==== 
     psi = 0.248*[#   3]+0.248*[#   7]+0.248*[#  11]+0.248*[#  15]+
    |psi|^2 = 0.997
==== e(   6) =    -6.07184 eV ==== 
     psi = 0.248*[#   3]+0.248*[#   7]+0.248*[#  11]+0.248*[#  15]+
    |psi|^2 = 0.997
==== e(   7) =    -5.96288 eV ==== 
     psi = 0.246*[#   2]+0.246*[#   6]+0.246*[#  10]+0.246*[#  14]+
    |psi|^2 = 0.987
==== e(   8) =    -5.22585 eV ==== 
     psi = 0.248*[#   2]+0.248*[#   6]+0.248*[#  10]+0.248*[#  14]+
    |psi|^2 = 0.992

 k =   0.0208333333  0.3728720489  0.0000000000
==== e(   1) =   -17.58686 eV ==== 
     psi = 0.154*[#   1]+0.154*[#   5]+0.154*[#   9]+0.154*[#  13]+0.090*[#   4]+
          +0.090*[#   8]+0.090*[#  12]+0.090*[#  16]+
    |psi|^2 = 0.977
==== e(   2) =   -17.48984 eV ==== 
     psi = 0.157*[#   1]+0.157*[#   5]+0.157*[#   9]+0.157*[#  13]+0.089*[#   4]+
          +0.089*[#   8]+0.089*[#  12]+0.089*[#  16]+
    |psi|^2 = 0.984
==== e(   3) =    -9.86475 eV ==== 
     psi = 0.183*[#   4]+0.183*[#   8]+0.183*[#  12]+0.183*[#  16]+0.064*[#   1]+
          +0.064*[#   5]+0.064*[#   9]+0.064*[#  13]+
    |psi|^2 = 0.989
==== e(   4) =    -9.81619 eV ==== 
     psi = 0.184*[#   4]+0.184*[#   8]+0.184*[#  12]+0.184*[#  16]+0.064*[#   1]+
          +0.064*[#   5]+0.064*[#   9]+0.064*[#  13]+
    |psi|^2 = 0.992
==== e(   5) =    -6.25150 eV ==== 
     psi = 0.248*[#   3]+0.248*[#   7]+0.248*[#  11]+0.248*[#  15]+
    |psi|^2 = 0.996
==== e(   6) =    -6.24102 eV ==== 
     psi = 0.248*[#   3]+0.248*[#   7]+0.248*[#  11]+0.248*[#  15]+
    |psi|^2 = 0.997
==== e(   7) =    -5.62406 eV ==== 
     psi = 0.247*[#   2]+0.247*[#   6]+0.247*[#  10]+0.247*[#  14]+
    |psi|^2 = 0.990
==== e(   8) =    -4.89937 eV ==== 
     psi = 0.248*[#   2]+0.248*[#   6]+0.248*[#  10]+0.248*[#  14]+
    |psi|^2 = 0.994

 k =   0.0208333333  0.3969283101  0.0000000000
==== e(   1) =   -17.27042 eV ==== 
     psi = 0.150*[#   1]+0.150*[#   5]+0.150*[#   9]+0.150*[#  13]+0.094*[#   4]+
          +0.094*[#   8]+0.094*[#  12]+0.094*[#  16]+
    |psi|^2 = 0.978
==== e(   2) =   -17.17541 eV ==== 
     psi = 0.152*[#   1]+0.152*[#   5]+0.152*[#   9]+0.152*[#  13]+0.093*[#   4]+
          +0.093*[#   8]+0.093*[#  12]+0.093*[#  16]+
    |psi|^2 = 0.984
==== e(   3) =   -10.40817 eV ==== 
     psi = 0.179*[#   4]+0.179*[#   8]+0.179*[#  12]+0.179*[#  16]+0.068*[#   1]+
          +0.068*[#   5]+0.068*[#   9]+0.068*[#  13]+
    |psi|^2 = 0.989
==== e(   4) =   -10.35653 eV ==== 
     psi = 0.180*[#   4]+0.180*[#   8]+0.180*[#  12]+0.180*[#  16]+0.068*[#   1]+
          +0.068*[#   5]+0.068*[#   9]+0.068*[#  13]+
    |psi|^2 = 0.991
==== e(   5) =    -6.40494 eV ==== 
     psi = 0.248*[#   3]+0.248*[#   7]+0.248*[#  11]+0.248*[#  15]+
    |psi|^2 = 0.996
==== e(   6) =    -6.39432 eV ==== 
     psi = 0.248*[#   3]+0.248*[#   7]+0.248*[#  11]+0.248*[#  15]+
    |psi|^2 = 0.996
==== e(   7) =    -5.27113 eV ==== 
     psi = 0.248*[#   2]+0.248*[#   6]+0.248*[#  10]+0.248*[#  14]+
    |psi|^2 = 0.992
==== e(   8) =    -4.56036 eV ==== 
     psi = 0.249*[#   2]+0.249*[#   6]+0.249*[#  10]+0.249*[#  14]+
    |psi|^2 = 0.995

 k =   0.0208333333  0.4209845713  0.0000000000
==== e(   1) =   -16.93670 eV ==== 
     psi = 0.146*[#   1]+0.146*[#   5]+0.146*[#   9]+0.146*[#  13]+0.098*[#   4]+
          +0.098*[#   8]+0.098*[#  12]+0.098*[#  16]+
    |psi|^2 = 0.979
==== e(   2) =   -16.84378 eV ==== 
     psi = 0.148*[#   1]+0.148*[#   5]+0.148*[#   9]+0.148*[#  13]+0.098*[#   4]+
          +0.098*[#   8]+0.098*[#  12]+0.098*[#  16]+
    |psi|^2 = 0.985
==== e(   3) =   -10.94404 eV ==== 
     psi = 0.175*[#   4]+0.175*[#   8]+0.175*[#  12]+0.175*[#  16]+0.071*[#   1]+
          +0.071*[#   5]+0.071*[#   9]+0.071*[#  13]+
    |psi|^2 = 0.988
==== e(   4) =   -10.88934 eV ==== 
     psi = 0.176*[#   4]+0.176*[#   8]+0.176*[#  12]+0.176*[#  16]+0.071*[#   1]+
          +0.071*[#   5]+0.071*[#   9]+0.071*[#  13]+
    |psi|^2 = 0.991
==== e(   5) =    -6.54130 eV ==== 
     psi = 0.248*[#   3]+0.248*[#   7]+0.248*[#  11]+0.248*[#  15]+
    |psi|^2 = 0.996
==== e(   6) =    -6.53058 eV ==== 
     psi = 0.248*[#   3]+0.248*[#   7]+0.248*[#  11]+0.248*[#  15]+
    |psi|^2 = 0.996
==== e(   7) =    -4.90795 eV ==== 
     psi = 0.248*[#   2]+0.248*[#   6]+0.248*[#  10]+0.248*[#  14]+
    |psi|^2 = 0.994
==== e(   8) =    -4.21278 eV ==== 
     psi = 0.249*[#   2]+0.249*[#   6]+0.249*[#  10]+0.249*[#  14]+
    |psi|^2 = 0.996

 k =   0.0208333333  0.4450408325  0.0000000000
==== e(   1) =   -16.58674 eV ==== 
     psi = 0.143*[#   1]+0.143*[#   5]+0.143*[#   9]+0.143*[#  13]+0.102*[#   4]+
          +0.102*[#   8]+0.102*[#  12]+0.102*[#  16]+
    |psi|^2 = 0.980
==== e(   2) =   -16.49596 eV ==== 
     psi = 0.145*[#   1]+0.145*[#   5]+0.145*[#   9]+0.145*[#  13]+0.101*[#   4]+
          +0.101*[#   8]+0.101*[#  12]+0.101*[#  16]+
    |psi|^2 = 0.985
==== e(   3) =   -11.46975 eV ==== 
     psi = 0.172*[#   4]+0.172*[#   8]+0.172*[#  12]+0.172*[#  16]+0.074*[#   1]+
          +0.074*[#   5]+0.074*[#   9]+0.074*[#  13]+
    |psi|^2 = 0.987
==== e(   4) =   -11.41213 eV ==== 
     psi = 0.173*[#   4]+0.173*[#   8]+0.173*[#  12]+0.173*[#  16]+0.074*[#   1]+
          +0.074*[#   5]+0.074*[#   9]+0.074*[#  13]+
    |psi|^2 = 0.990
==== e(   5) =    -6.65970 eV ==== 
     psi = 0.248*[#   3]+0.248*[#   7]+0.248*[#  11]+0.248*[#  15]+
    |psi|^2 = 0.996
==== e(   6) =    -6.64881 eV ==== 
     psi = 0.248*[#   3]+0.248*[#   7]+0.248*[#  11]+0.248*[#  15]+
    |psi|^2 = 0.996
==== e(   7) =    -4.54011 eV ==== 
     psi = 0.249*[#   2]+0.249*[#   6]+0.249*[#  10]+0.249*[#  14]+
    |psi|^2 = 0.995
==== e(   8) =    -3.86241 eV ==== 
     psi = 0.249*[#   2]+0.249*[#  14]+0.249*[#   6]+0.249*[#  10]+
    |psi|^2 = 0.996

 k =   0.0208333333  0.4690970937  0.0000000000
==== e(   1) =   -16.22222 eV ==== 
     psi = 0.140*[#   1]+0.140*[#   5]+0.140*[#   9]+0.140*[#  13]+0.105*[#   4]+
          +0.105*[#   8]+0.105*[#  12]+0.105*[#  16]+
    |psi|^2 = 0.981
==== e(   2) =   -16.13359 eV ==== 
     psi = 0.142*[#   1]+0.142*[#   5]+0.142*[#   9]+0.142*[#  13]+0.104*[#   4]+
          +0.104*[#   8]+0.104*[#  12]+0.104*[#  16]+
    |psi|^2 = 0.986
==== e(   3) =   -11.98244 eV ==== 
     psi = 0.170*[#   4]+0.170*[#   8]+0.170*[#  12]+0.170*[#  16]+0.077*[#   1]+
          +0.077*[#   5]+0.077*[#   9]+0.077*[#  13]+
    |psi|^2 = 0.986
==== e(   4) =   -11.92205 eV ==== 
     psi = 0.170*[#   4]+0.170*[#   8]+0.170*[#  12]+0.170*[#  16]+0.077*[#   1]+
          +0.077*[#   5]+0.077*[#   9]+0.077*[#  13]+
    |psi|^2 = 0.989
==== e(   5) =    -6.75940 eV ==== 
     psi = 0.248*[#   3]+0.248*[#   7]+0.248*[#  11]+0.248*[#  15]+
    |psi|^2 = 0.996
==== e(   6) =    -6.74843 eV ==== 
     psi = 0.248*[#   3]+0.248*[#   7]+0.248*[#  11]+0.248*[#  15]+
    |psi|^2 = 0.996
==== e(   7) =    -4.17607 eV ==== 
     psi = 0.249*[#  10]+0.249*[#   2]+0.249*[#   6]+0.249*[#  14]+
    |psi|^2 = 0.996
==== e(   8) =    -3.51782 eV ==== 
     psi = 0.249*[#   2]+0.249*[#  14]+0.249*[#   6]+0.249*[#  10]+
    |psi|^2 = 0.997

 k =   0.0208333333  0.4931533549  0.0000000000
==== e(   1) =   -15.84626 eV ==== 
     psi = 0.138*[#   1]+0.138*[#   5]+0.138*[#   9]+0.138*[#  13]+0.107*[#   4]+
          +0.107*[#   8]+0.107*[#  12]+0.107*[#  16]+
    |psi|^2 = 0.982
==== e(   2) =   -15.75973 eV ==== 
     psi = 0.140*[#   1]+0.140*[#   5]+0.140*[#   9]+0.140*[#  13]+0.106*[#   4]+
          +0.106*[#   8]+0.106*[#  12]+0.106*[#  16]+
    |psi|^2 = 0.987
==== e(   3) =   -12.47807 eV ==== 
     psi = 0.168*[#   4]+0.168*[#   8]+0.168*[#  12]+0.168*[#  16]+0.078*[#   1]+
          +0.078*[#   5]+0.078*[#   9]+0.078*[#  13]+
    |psi|^2 = 0.984
==== e(   4) =   -12.41505 eV ==== 
     psi = 0.169*[#   4]+0.169*[#   8]+0.169*[#  12]+0.169*[#  16]+0.078*[#   1]+
          +0.078*[#   5]+0.078*[#   9]+0.078*[#  13]+
    |psi|^2 = 0.988
==== e(   5) =    -6.83976 eV ==== 
     psi = 0.248*[#   3]+0.248*[#   7]+0.248*[#  11]+0.248*[#  15]+
    |psi|^2 = 0.996
==== e(   6) =    -6.82871 eV ==== 
     psi = 0.248*[#   3]+0.248*[#   7]+0.248*[#  11]+0.248*[#  15]+
    |psi|^2 = 0.996
==== e(   7) =    -3.82911 eV ==== 
     psi = 0.249*[#   6]+0.249*[#  10]+0.249*[#   2]+0.249*[#  14]+
    |psi|^2 = 0.996
==== e(   8) =    -3.19210 eV ==== 
     psi = 0.249*[#   2]+0.249*[#  14]+0.249*[#   6]+0.249*[#  10]+
    |psi|^2 = 0.997

 k =   0.0208333333  0.5172096161  0.0000000000
==== e(   1) =   -15.46578 eV ==== 
     psi = 0.139*[#   1]+0.139*[#   5]+0.139*[#   9]+0.139*[#  13]+0.107*[#   4]+
          +0.107*[#   8]+0.107*[#  12]+0.107*[#  16]+
    |psi|^2 = 0.984
==== e(   2) =   -15.38115 eV ==== 
     psi = 0.141*[#   1]+0.141*[#   5]+0.141*[#   9]+0.141*[#  13]+0.106*[#   4]+
          +0.106*[#   8]+0.106*[#  12]+0.106*[#  16]+
    |psi|^2 = 0.988
==== e(   3) =   -12.94891 eV ==== 
     psi = 0.169*[#   4]+0.169*[#   8]+0.169*[#  12]+0.169*[#  16]+0.077*[#   1]+
          +0.077*[#   5]+0.077*[#   9]+0.077*[#  13]+
    |psi|^2 = 0.983
==== e(   4) =   -12.88357 eV ==== 
     psi = 0.169*[#   4]+0.169*[#   8]+0.169*[#  12]+0.169*[#  16]+0.077*[#   1]+
          +0.077*[#   5]+0.077*[#   9]+0.077*[#  13]+
    |psi|^2 = 0.986
==== e(   5) =    -6.90037 eV ==== 
     psi = 0.248*[#   3]+0.248*[#   7]+0.248*[#  11]+0.248*[#  15]+
    |psi|^2 = 0.996
==== e(   6) =    -6.88931 eV ==== 
     psi = 0.248*[#   3]+0.248*[#   7]+0.248*[#  11]+0.248*[#  15]+
    |psi|^2 = 0.996
==== e(   7) =    -3.51988 eV ==== 
     psi = 0.249*[#  10]+0.249*[#   2]+0.249*[#   6]+0.249*[#  14]+
    |psi|^2 = 0.997
==== e(   8) =    -2.90486 eV ==== 
     psi = 0.249*[#   2]+0.249*[#  14]+0.249*[#   6]+0.249*[#  10]+
    |psi|^2 = 0.997

 k =   0.0208333333  0.5412658774  0.0000000000
==== e(   1) =   -15.10034 eV ==== 
     psi = 0.144*[#   1]+0.144*[#   5]+0.144*[#   9]+0.144*[#  13]+0.102*[#   4]+
          +0.102*[#   8]+0.102*[#  12]+0.102*[#  16]+
    |psi|^2 = 0.987
==== e(   2) =   -15.01707 eV ==== 
     psi = 0.146*[#   1]+0.146*[#   5]+0.146*[#   9]+0.146*[#  13]+0.102*[#   4]+
          +0.102*[#   8]+0.102*[#  12]+0.102*[#  16]+
    |psi|^2 = 0.990
==== e(   3) =   -13.37486 eV ==== 
     psi = 0.173*[#   4]+0.173*[#   8]+0.173*[#  12]+0.173*[#  16]+0.072*[#   1]+
          +0.072*[#   5]+0.072*[#   9]+0.072*[#  13]+
    |psi|^2 = 0.980
==== e(   4) =   -13.30786 eV ==== 
     psi = 0.174*[#   4]+0.174*[#   8]+0.174*[#  12]+0.174*[#  16]+0.072*[#   1]+
          +0.072*[#   5]+0.072*[#   9]+0.072*[#  13]+
    |psi|^2 = 0.984
==== e(   5) =    -6.94097 eV ==== 
     psi = 0.248*[#   3]+0.248*[#   7]+0.248*[#  11]+0.248*[#  15]+
    |psi|^2 = 0.996
==== e(   6) =    -6.92989 eV ==== 
     psi = 0.248*[#   3]+0.248*[#   7]+0.248*[#  11]+0.248*[#  15]+
    |psi|^2 = 0.996
==== e(   7) =    -3.27883 eV ==== 
     psi = 0.249*[#   2]+0.249*[#   6]+0.249*[#  10]+0.249*[#  14]+
    |psi|^2 = 0.997
==== e(   8) =    -2.68373 eV ==== 
     psi = 0.249*[#   2]+0.249*[#   6]+0.249*[#  14]+0.249*[#  10]+
    |psi|^2 = 0.998

 k =   0.0208333333  0.5653221386  0.0000000000
==== e(   1) =   -14.82143 eV ==== 
     psi = 0.156*[#   1]+0.156*[#   5]+0.156*[#   9]+0.156*[#  13]+0.091*[#   4]+
          +0.091*[#   8]+0.091*[#  12]+0.091*[#  16]+
    |psi|^2 = 0.991
==== e(   2) =   -14.73840 eV ==== 
     psi = 0.158*[#   1]+0.158*[#   5]+0.158*[#   9]+0.158*[#  13]+0.090*[#   4]+
          +0.090*[#   8]+0.090*[#  12]+0.090*[#  16]+
    |psi|^2 = 0.993
==== e(   3) =   -13.68414 eV ==== 
     psi = 0.184*[#   4]+0.184*[#   8]+0.184*[#  12]+0.184*[#  16]+0.060*[#   1]+
          +0.060*[#   5]+0.060*[#   9]+0.060*[#  13]+
    |psi|^2 = 0.976
==== e(   4) =   -13.61677 eV ==== 
     psi = 0.185*[#   4]+0.185*[#   8]+0.185*[#  12]+0.185*[#  16]+0.060*[#   1]+
          +0.060*[#   5]+0.060*[#   9]+0.060*[#  13]+
    |psi|^2 = 0.982
==== e(   5) =    -6.96133 eV ==== 
     psi = 0.248*[#   3]+0.248*[#   7]+0.248*[#  11]+0.248*[#  15]+
    |psi|^2 = 0.996
==== e(   6) =    -6.95022 eV ==== 
     psi = 0.248*[#   3]+0.248*[#   7]+0.248*[#  11]+0.248*[#  15]+
    |psi|^2 = 0.996
==== e(   7) =    -3.14368 eV ==== 
     psi = 0.249*[#   2]+0.249*[#   6]+0.249*[#  10]+0.249*[#  14]+
    |psi|^2 = 0.998
==== e(   8) =    -2.56109 eV ==== 
     psi = 0.249*[#   2]+0.249*[#   6]+0.249*[#  10]+0.249*[#  14]+
    |psi|^2 = 0.998

 k =   0.0416666667  0.0721687836  0.0000000000
==== e(   1) =   -19.90001 eV ==== 
     psi = 0.234*[#   1]+0.234*[#   5]+0.234*[#   9]+0.234*[#  13]+0.008*[#   4]+
          +0.008*[#   8]+0.008*[#  12]+0.008*[#  16]+0.003*[#   3]+0.003*[#   7]+
          +0.003*[#  11]+0.003*[#  15]+
    |psi|^2 = 0.979
==== e(   2) =   -19.78734 eV ==== 
     psi = 0.236*[#   1]+0.236*[#   5]+0.236*[#   9]+0.236*[#  13]+0.008*[#   4]+
          +0.008*[#   8]+0.008*[#  12]+0.008*[#  16]+0.003*[#   3]+0.003*[#   7]+
          +0.003*[#  11]+0.003*[#  15]+
    |psi|^2 = 0.986
==== e(   3) =    -8.33934 eV ==== 
     psi = 0.238*[#   2]+0.238*[#   6]+0.238*[#  10]+0.238*[#  14]+
    |psi|^2 = 0.952
==== e(   4) =    -7.53176 eV ==== 
     psi = 0.241*[#   2]+0.241*[#   6]+0.241*[#  10]+0.241*[#  14]+
    |psi|^2 = 0.967
==== e(   5) =    -4.05059 eV ==== 
     psi = 0.181*[#   4]+0.181*[#  16]+0.180*[#   8]+0.180*[#  12]+0.063*[#   7]+
          +0.063*[#  11]+0.062*[#   3]+0.062*[#  15]+0.006*[#   1]+0.006*[#   5]+
          +0.006*[#   9]+0.006*[#  13]+
    |psi|^2 = 0.997
==== e(   6) =    -4.03771 eV ==== 
     psi = 0.180*[#  12]+0.180*[#   8]+0.179*[#  16]+0.179*[#   4]+0.064*[#   3]+
          +0.064*[#  15]+0.063*[#   7]+0.063*[#  11]+0.006*[#   1]+0.006*[#   5]+
          +0.006*[#   9]+0.006*[#  13]+
    |psi|^2 = 0.997
==== e(   7) =    -3.83212 eV ==== 
     psi = 0.185*[#   7]+0.185*[#  11]+0.185*[#   3]+0.185*[#  15]+0.064*[#   4]+
          +0.064*[#  16]+0.064*[#   8]+0.064*[#  12]+
    |psi|^2 = 0.997
==== e(   8) =    -3.82350 eV ==== 
     psi = 0.184*[#   3]+0.184*[#  15]+0.183*[#   7]+0.183*[#  11]+0.066*[#   8]+
          +0.066*[#  12]+0.065*[#   4]+0.065*[#  16]+
    |psi|^2 = 0.997

 k =   0.0416666667  0.0962250449  0.0000000000
==== e(   1) =   -19.82827 eV ==== 
     psi = 0.228*[#   1]+0.228*[#   5]+0.228*[#   9]+0.228*[#  13]+0.013*[#   4]+
          +0.013*[#   8]+0.013*[#  12]+0.013*[#  16]+0.003*[#   3]+0.003*[#   7]+
          +0.003*[#  11]+0.003*[#  15]+
    |psi|^2 = 0.979
==== e(   2) =   -19.71611 eV ==== 
     psi = 0.231*[#   1]+0.231*[#   5]+0.231*[#   9]+0.231*[#  13]+0.013*[#   4]+
          +0.013*[#   8]+0.013*[#  12]+0.013*[#  16]+0.002*[#   3]+0.002*[#   7]+
          +0.002*[#  11]+0.002*[#  15]+
    |psi|^2 = 0.985
==== e(   3) =    -8.25302 eV ==== 
     psi = 0.238*[#   2]+0.238*[#   6]+0.238*[#  10]+0.238*[#  14]+
    |psi|^2 = 0.954
==== e(   4) =    -7.44763 eV ==== 
     psi = 0.242*[#   2]+0.242*[#   6]+0.242*[#  10]+0.242*[#  14]+
    |psi|^2 = 0.969
==== e(   5) =    -4.31194 eV ==== 
     psi = 0.203*[#   4]+0.203*[#  16]+0.202*[#   8]+0.202*[#  12]+0.037*[#   7]+
          +0.037*[#  11]+0.037*[#   3]+0.037*[#  15]+0.010*[#   1]+0.010*[#   5]+
          +0.010*[#   9]+0.010*[#  13]+
    |psi|^2 = 0.997
==== e(   6) =    -4.29720 eV ==== 
     psi = 0.202*[#  12]+0.202*[#   8]+0.202*[#  16]+0.202*[#   4]+0.038*[#   3]+
          +0.038*[#  15]+0.037*[#   7]+0.037*[#  11]+0.010*[#   5]+0.010*[#   9]+
          +0.010*[#   1]+0.010*[#  13]+
    |psi|^2 = 0.997
==== e(   7) =    -3.98014 eV ==== 
     psi = 0.210*[#   7]+0.210*[#  11]+0.210*[#   3]+0.210*[#  15]+0.039*[#   4]+
          +0.039*[#  16]+0.038*[#   8]+0.038*[#  12]+
    |psi|^2 = 0.997
==== e(   8) =    -3.97150 eV ==== 
     psi = 0.210*[#   3]+0.210*[#  15]+0.209*[#   7]+0.209*[#  11]+0.039*[#   8]+
          +0.039*[#  12]+0.039*[#   4]+0.039*[#  16]+
    |psi|^2 = 0.997

 k =   0.0416666667  0.1202813061  0.0000000000
==== e(   1) =   -19.73611 eV ==== 
     psi = 0.222*[#   1]+0.222*[#   5]+0.222*[#   9]+0.222*[#  13]+0.020*[#   4]+
          +0.020*[#   8]+0.020*[#  12]+0.020*[#  16]+0.002*[#   3]+0.002*[#   7]+
          +0.002*[#  11]+0.002*[#  15]+
    |psi|^2 = 0.979
==== e(   2) =   -19.62460 eV ==== 
     psi = 0.225*[#   1]+0.225*[#   5]+0.225*[#   9]+0.225*[#  13]+0.019*[#   4]+
          +0.019*[#   8]+0.019*[#  12]+0.019*[#  16]+0.002*[#   3]+0.002*[#   7]+
          +0.002*[#  11]+0.002*[#  15]+
    |psi|^2 = 0.985
==== e(   3) =    -8.14226 eV ==== 
     psi = 0.239*[#   2]+0.239*[#   6]+0.239*[#  10]+0.239*[#  14]+
    |psi|^2 = 0.956
==== e(   4) =    -7.33971 eV ==== 
     psi = 0.242*[#   2]+0.242*[#   6]+0.242*[#  10]+0.242*[#  14]+
    |psi|^2 = 0.971
==== e(   5) =    -4.63404 eV ==== 
     psi = 0.213*[#   4]+0.213*[#  16]+0.213*[#   8]+0.213*[#  12]+0.023*[#   7]+
          +0.023*[#  11]+0.022*[#   3]+0.022*[#  15]+0.014*[#   1]+0.014*[#  13]+
          +0.014*[#   5]+0.014*[#   9]+
    |psi|^2 = 0.997
==== e(   6) =    -4.61713 eV ==== 
     psi = 0.213*[#  12]+0.213*[#   8]+0.213*[#  16]+0.213*[#   4]+0.023*[#   3]+
          +0.023*[#  15]+0.023*[#   7]+0.023*[#  11]+0.014*[#   5]+0.014*[#   9]+
          +0.013*[#   1]+0.013*[#  13]+
    |psi|^2 = 0.997
==== e(   7) =    -4.15815 eV ==== 
     psi = 0.225*[#   7]+0.225*[#  11]+0.225*[#   3]+0.225*[#  15]+0.024*[#   4]+
          +0.024*[#  16]+0.024*[#   8]+0.024*[#  12]+
    |psi|^2 = 0.996
==== e(   8) =    -4.14921 eV ==== 
     psi = 0.225*[#   3]+0.225*[#  15]+0.224*[#   7]+0.224*[#  11]+0.024*[#   8]+
          +0.024*[#  12]+0.024*[#   4]+0.024*[#  16]+
    |psi|^2 = 0.997

 k =   0.0416666667  0.1443375673  0.0000000000
==== e(   1) =   -19.62362 eV ==== 
     psi = 0.215*[#   1]+0.215*[#   5]+0.215*[#   9]+0.215*[#  13]+0.027*[#   4]+
          +0.027*[#   8]+0.027*[#  12]+0.027*[#  16]+0.002*[#   3]+0.002*[#   7]+
          +0.002*[#  11]+0.002*[#  15]+
    |psi|^2 = 0.978
==== e(   2) =   -19.51289 eV ==== 
     psi = 0.218*[#   1]+0.218*[#   5]+0.218*[#   9]+0.218*[#  13]+0.026*[#   4]+
          +0.026*[#   8]+0.026*[#  12]+0.026*[#  16]+0.002*[#   3]+0.002*[#   7]+
          +0.002*[#  11]+0.002*[#  15]+
    |psi|^2 = 0.985
==== e(   3) =    -8.00725 eV ==== 
     psi = 0.239*[#   2]+0.239*[#   6]+0.239*[#  10]+0.239*[#  14]+
    |psi|^2 = 0.958
==== e(   4) =    -7.20821 eV ==== 
     psi = 0.243*[#   2]+0.243*[#   6]+0.243*[#  10]+0.243*[#  14]+
    |psi|^2 = 0.973
==== e(   5) =    -5.00920 eV ==== 
     psi = 0.217*[#   4]+0.217*[#   8]+0.217*[#  12]+0.217*[#  16]+0.018*[#   1]+
          +0.018*[#  13]+0.018*[#   5]+0.018*[#   9]+0.014*[#   7]+0.014*[#  11]+
          +0.014*[#   3]+0.014*[#  15]+
    |psi|^2 = 0.997
==== e(   6) =    -4.98977 eV ==== 
     psi = 0.217*[#  12]+0.217*[#  16]+0.217*[#   4]+0.217*[#   8]+0.018*[#   5]+
          +0.018*[#   9]+0.018*[#   1]+0.018*[#  13]+0.014*[#   3]+0.014*[#  15]+
          +0.014*[#   7]+0.014*[#  11]+
    |psi|^2 = 0.997
==== e(   7) =    -4.35850 eV ==== 
     psi = 0.233*[#   3]+0.233*[#   7]+0.233*[#  11]+0.233*[#  15]+0.015*[#   4]+
          +0.015*[#   8]+0.015*[#  12]+0.015*[#  16]+0.001*[#   1]+0.001*[#   5]+
          +0.001*[#   9]+0.001*[#  13]+
    |psi|^2 = 0.996
==== e(   8) =    -4.34915 eV ==== 
     psi = 0.233*[#   3]+0.233*[#   7]+0.233*[#  11]+0.233*[#  15]+0.015*[#   4]+
          +0.015*[#   8]+0.015*[#  12]+0.015*[#  16]+0.001*[#   1]+0.001*[#   5]+
          +0.001*[#   9]+0.001*[#  13]+
    |psi|^2 = 0.997

 k =   0.0416666667  0.1683938285  0.0000000000
==== e(   1) =   -19.49086 eV ==== 
     psi = 0.208*[#   1]+0.208*[#   5]+0.208*[#   9]+0.208*[#  13]+0.034*[#   4]+
          +0.034*[#   8]+0.034*[#  12]+0.034*[#  16]+0.002*[#   3]+0.002*[#   7]+
          +0.002*[#  11]+0.002*[#  15]+
    |psi|^2 = 0.978
==== e(   2) =   -19.38106 eV ==== 
     psi = 0.211*[#   1]+0.211*[#   5]+0.211*[#   9]+0.211*[#  13]+0.033*[#   4]+
          +0.033*[#   8]+0.033*[#  12]+0.033*[#  16]+0.002*[#   3]+0.002*[#   7]+
          +0.002*[#  11]+0.002*[#  15]+
    |psi|^2 = 0.985
==== e(   3) =    -7.84825 eV ==== 
     psi = 0.240*[#   2]+0.240*[#   6]+0.240*[#  10]+0.240*[#  14]+
    |psi|^2 = 0.961
==== e(   4) =    -7.05345 eV ==== 
     psi = 0.244*[#   2]+0.243*[#   6]+0.243*[#  10]+0.244*[#  14]+
    |psi|^2 = 0.975
==== e(   5) =    -5.42928 eV ==== 
     psi = 0.217*[#   4]+0.217*[#   8]+0.217*[#  12]+0.217*[#  16]+0.023*[#   1]+
          +0.023*[#  13]+0.023*[#   5]+0.023*[#   9]+0.009*[#   7]+0.009*[#  11]+
          +0.009*[#   3]+0.009*[#  15]+
    |psi|^2 = 0.996
==== e(   6) =    -5.40711 eV ==== 
     psi = 0.217*[#   4]+0.217*[#   8]+0.217*[#  12]+0.217*[#  16]+0.023*[#   5]+
          +0.023*[#   9]+0.023*[#   1]+0.023*[#  13]+0.009*[#   3]+0.009*[#  15]+
          +0.009*[#   7]+0.009*[#  11]+
    |psi|^2 = 0.997
==== e(   7) =    -4.57410 eV ==== 
     psi = 0.238*[#   3]+0.238*[#   7]+0.238*[#  11]+0.238*[#  15]+0.010*[#   4]+
          +0.010*[#   8]+0.010*[#  12]+0.010*[#  16]+0.001*[#   1]+0.001*[#   5]+
          +0.001*[#   9]+0.001*[#  13]+
    |psi|^2 = 0.996
==== e(   8) =    -4.56431 eV ==== 
     psi = 0.238*[#   3]+0.238*[#   7]+0.238*[#  11]+0.238*[#  15]+0.010*[#   4]+
          +0.010*[#   8]+0.010*[#  12]+0.010*[#  16]+0.001*[#   1]+0.001*[#   5]+
          +0.001*[#   9]+0.001*[#  13]+
    |psi|^2 = 0.997

 k =   0.0416666667  0.1924500897  0.0000000000
==== e(   1) =   -19.33793 eV ==== 
     psi = 0.200*[#   1]+0.200*[#   5]+0.200*[#   9]+0.200*[#  13]+0.042*[#   4]+
          +0.042*[#   8]+0.042*[#  12]+0.042*[#  16]+0.002*[#   3]+0.002*[#   7]+
          +0.002*[#  11]+0.002*[#  15]+
    |psi|^2 = 0.978
==== e(   2) =   -19.22919 eV ==== 
     psi = 0.203*[#   1]+0.203*[#   5]+0.203*[#   9]+0.203*[#  13]+0.041*[#   4]+
          +0.041*[#   8]+0.041*[#  12]+0.041*[#  16]+0.002*[#   3]+0.002*[#   7]+
          +0.002*[#  11]+0.002*[#  15]+
    |psi|^2 = 0.984
==== e(   3) =    -7.66551 eV ==== 
     psi = 0.241*[#   2]+0.241*[#   6]+0.241*[#  10]+0.241*[#  14]+
    |psi|^2 = 0.965
==== e(   4) =    -6.87565 eV ==== 
     psi = 0.244*[#   2]+0.244*[#   6]+0.244*[#  10]+0.244*[#  14]+
    |psi|^2 = 0.978
==== e(   5) =    -5.88621 eV ==== 
     psi = 0.215*[#   4]+0.215*[#   8]+0.215*[#  12]+0.215*[#  16]+0.028*[#   1]+
          +0.028*[#  13]+0.028*[#   5]+0.028*[#   9]+0.006*[#   7]+0.006*[#  11]+
          +0.006*[#   3]+0.006*[#  15]+
    |psi|^2 = 0.995
==== e(   6) =    -5.86116 eV ==== 
     psi = 0.215*[#   4]+0.215*[#  16]+0.215*[#   8]+0.215*[#  12]+0.028*[#   5]+
          +0.028*[#   9]+0.028*[#   1]+0.028*[#  13]+0.006*[#   3]+0.006*[#  15]+
          +0.006*[#   7]+0.006*[#  11]+
    |psi|^2 = 0.996
==== e(   7) =    -4.79872 eV ==== 
     psi = 0.241*[#   3]+0.241*[#  15]+0.241*[#   7]+0.241*[#  11]+0.006*[#   4]+
          +0.006*[#   8]+0.006*[#  12]+0.006*[#  16]+0.002*[#   1]+0.002*[#   5]+
          +0.002*[#   9]+0.002*[#  13]+
    |psi|^2 = 0.996
==== e(   8) =    -4.78853 eV ==== 
     psi = 0.241*[#   7]+0.241*[#   3]+0.241*[#  11]+0.241*[#  15]+0.007*[#   4]+
          +0.007*[#   8]+0.007*[#  12]+0.007*[#  16]+0.001*[#   1]+0.001*[#   5]+
          +0.001*[#   9]+0.001*[#  13]+
    |psi|^2 = 0.997

 k =   0.0416666667  0.2165063509  0.0000000000
==== e(   1) =   -19.16495 eV ==== 
     psi = 0.193*[#   1]+0.193*[#   5]+0.193*[#   9]+0.193*[#  13]+0.049*[#   4]+
          +0.049*[#   8]+0.049*[#  12]+0.049*[#  16]+0.002*[#   3]+0.002*[#   7]+
          +0.002*[#  11]+0.002*[#  15]+
    |psi|^2 = 0.978
==== e(   2) =   -19.05739 eV ==== 
     psi = 0.196*[#   1]+0.196*[#   5]+0.196*[#   9]+0.196*[#  13]+0.048*[#   4]+
          +0.048*[#   8]+0.048*[#  12]+0.048*[#  16]+0.002*[#   3]+0.002*[#   7]+
          +0.002*[#  11]+0.002*[#  15]+
    |psi|^2 = 0.984
==== e(   3) =    -7.45942 eV ==== 
     psi = 0.242*[#   2]+0.242*[#   6]+0.242*[#  10]+0.242*[#  14]+
    |psi|^2 = 0.968
==== e(   4) =    -6.67535 eV ==== 
     psi = 0.245*[#   2]+0.245*[#   6]+0.245*[#  10]+0.245*[#  14]+
    |psi|^2 = 0.980
==== e(   5) =    -6.37255 eV ==== 
     psi = 0.211*[#   4]+0.211*[#   8]+0.211*[#  12]+0.211*[#  16]+0.033*[#   1]+
          +0.033*[#   5]+0.033*[#   9]+0.033*[#  13]+0.004*[#   7]+0.004*[#  11]+
          +0.004*[#   3]+0.004*[#  15]+
    |psi|^2 = 0.994
==== e(   6) =    -6.34439 eV ==== 
     psi = 0.212*[#   4]+0.212*[#  16]+0.212*[#   8]+0.212*[#  12]+0.033*[#   5]+
          +0.033*[#   9]+0.033*[#   1]+0.033*[#  13]+0.004*[#   3]+0.004*[#  15]+
          +0.004*[#   7]+0.004*[#  11]+
    |psi|^2 = 0.996
==== e(   7) =    -5.02705 eV ==== 
     psi = 0.243*[#   3]+0.243*[#  15]+0.243*[#   7]+0.243*[#  11]+0.004*[#   4]+
          +0.004*[#   8]+0.004*[#  12]+0.004*[#  16]+0.002*[#   1]+0.002*[#   5]+
          +0.002*[#   9]+0.002*[#  13]+
    |psi|^2 = 0.996
==== e(   8) =    -5.01640 eV ==== 
     psi = 0.243*[#   7]+0.243*[#   3]+0.243*[#  11]+0.243*[#  15]+0.005*[#   4]+
          +0.005*[#   8]+0.005*[#  12]+0.005*[#  16]+0.002*[#   1]+0.002*[#   5]+
          +0.002*[#   9]+0.002*[#  13]+
    |psi|^2 = 0.997

 k =   0.0416666667  0.2405626122  0.0000000000
==== e(   1) =   -18.97207 eV ==== 
     psi = 0.186*[#   1]+0.186*[#   5]+0.186*[#   9]+0.186*[#  13]+0.056*[#   4]+
[...]
==== e(   5) =   -10.80086 eV ==== 
     psi = 0.131*[#   4]+0.131*[#  16]+0.130*[#   8]+0.130*[#  12]+0.107*[#   7]+
          +0.107*[#  11]+0.106*[#   3]+0.106*[#  15]+0.009*[#   1]+0.009*[#  13]+
          +0.009*[#   5]+0.009*[#   9]+
    |psi|^2 = 0.982
==== e(   6) =   -10.75696 eV ==== 
     psi = 0.132*[#   8]+0.132*[#  12]+0.131*[#   4]+0.131*[#  16]+0.106*[#   3]+
          +0.106*[#  15]+0.105*[#   7]+0.105*[#  11]+0.009*[#   5]+0.009*[#   9]+
          +0.009*[#   1]+0.009*[#  13]+
    |psi|^2 = 0.985
==== e(   7) =    -1.42398 eV ==== 
     psi = 0.271*[#   6]+0.271*[#  10]+0.227*[#   2]+0.227*[#  14]+
    |psi|^2 = 0.995
==== e(   8) =    -0.92205 eV ==== 
     psi = 0.297*[#   2]+0.297*[#  14]+0.201*[#   6]+0.201*[#  10]+
    |psi|^2 = 0.995

 k =   0.6250000000 -0.0240562612  0.0000000000
==== e(   1) =   -13.66343 eV ==== 
     psi = 0.126*[#   1]+0.126*[#  13]+0.123*[#   5]+0.123*[#   9]+0.096*[#   7]+
          +0.096*[#  11]+0.093*[#   3]+0.093*[#  15]+0.029*[#   8]+0.029*[#  12]+
          +0.028*[#   4]+0.028*[#  16]+
    |psi|^2 = 0.991
==== e(   2) =   -13.59554 eV ==== 
     psi = 0.127*[#   5]+0.127*[#   9]+0.124*[#   1]+0.124*[#  13]+0.095*[#   3]+
          +0.095*[#  15]+0.093*[#   7]+0.093*[#  11]+0.029*[#   4]+0.029*[#  16]+
          +0.028*[#   8]+0.028*[#  12]+
    |psi|^2 = 0.993
==== e(   3) =   -12.71543 eV ==== 
     psi = 0.107*[#   1]+0.107*[#  13]+0.104*[#   5]+0.104*[#   9]+0.084*[#   7]+
          +0.084*[#  11]+0.082*[#   3]+0.082*[#  15]+0.060*[#   8]+0.060*[#  12]+
          +0.058*[#   4]+0.058*[#  16]+
    |psi|^2 = 0.991
==== e(   4) =   -12.65064 eV ==== 
     psi = 0.108*[#   5]+0.108*[#   9]+0.105*[#   1]+0.105*[#  13]+0.084*[#   3]+
          +0.084*[#  15]+0.082*[#   7]+0.082*[#  11]+0.060*[#   4]+0.060*[#  16]+
          +0.058*[#   8]+0.058*[#  12]+
    |psi|^2 = 0.993
==== e(   5) =   -10.80213 eV ==== 
     psi = 0.158*[#   8]+0.158*[#  12]+0.158*[#   4]+0.158*[#  16]+0.079*[#   3]+
          +0.079*[#  15]+0.078*[#   7]+0.078*[#  11]+0.009*[#   5]+0.009*[#   9]+
          +0.009*[#   1]+0.009*[#  13]+
    |psi|^2 = 0.982
==== e(   6) =   -10.75613 eV ==== 
     psi = 0.159*[#   4]+0.159*[#  16]+0.159*[#   8]+0.159*[#  12]+0.079*[#   7]+
          +0.079*[#  11]+0.078*[#   3]+0.078*[#  15]+0.009*[#   1]+0.009*[#  13]+
          +0.009*[#   5]+0.009*[#   9]+
    |psi|^2 = 0.985
==== e(   7) =    -1.42009 eV ==== 
     psi = 0.262*[#   2]+0.262*[#  14]+0.235*[#   6]+0.235*[#  10]+
    |psi|^2 = 0.995
==== e(   8) =    -0.92012 eV ==== 
     psi = 0.279*[#   6]+0.279*[#  10]+0.218*[#   2]+0.218*[#  14]+
    |psi|^2 = 0.995

 k =  -0.3541666667  0.5412658774  0.0000000000
==== e(   1) =   -13.48920 eV ==== 
     psi = 0.132*[#   1]+0.132*[#  13]+0.123*[#   5]+0.123*[#   9]+0.068*[#   7]+
          +0.068*[#  11]+0.061*[#   3]+0.061*[#  15]+0.058*[#   8]+0.058*[#  12]+
          +0.054*[#   4]+0.054*[#  16]+
    |psi|^2 = 0.992
==== e(   2) =   -13.42592 eV ==== 
     psi = 0.134*[#   5]+0.134*[#   9]+0.123*[#   1]+0.123*[#  13]+0.068*[#   3]+
          +0.068*[#  15]+0.060*[#   7]+0.060*[#  11]+0.058*[#   4]+0.058*[#  16]+
          +0.054*[#   8]+0.054*[#  12]+
    |psi|^2 = 0.993
==== e(   3) =   -12.87102 eV ==== 
     psi = 0.108*[#   1]+0.108*[#  13]+0.102*[#   7]+0.102*[#  11]+0.097*[#   5]+
          +0.097*[#   9]+0.095*[#   3]+0.095*[#  15]+0.049*[#   8]+0.049*[#  12]+
          +0.043*[#   4]+0.043*[#  16]+
    |psi|^2 = 0.990
==== e(   4) =   -12.81156 eV ==== 
     psi = 0.108*[#   5]+0.108*[#   9]+0.101*[#   3]+0.101*[#  15]+0.098*[#   1]+
          +0.098*[#  13]+0.096*[#   7]+0.096*[#  11]+0.049*[#   4]+0.049*[#  16]+
          +0.044*[#   8]+0.044*[#  12]+
    |psi|^2 = 0.992
==== e(   5) =   -10.83703 eV ==== 
     psi = 0.146*[#   8]+0.146*[#  12]+0.146*[#   4]+0.146*[#  16]+0.091*[#   3]+
          +0.091*[#  15]+0.090*[#   7]+0.090*[#  11]+0.009*[#   5]+0.009*[#   9]+
          +0.009*[#   1]+0.009*[#  13]+
    |psi|^2 = 0.982
==== e(   6) =   -10.79181 eV ==== 
     psi = 0.147*[#   4]+0.147*[#  16]+0.147*[#   8]+0.147*[#  12]+0.091*[#   7]+
          +0.091*[#  11]+0.090*[#   3]+0.090*[#  15]+0.009*[#   1]+0.009*[#  13]+
          +0.009*[#   5]+0.009*[#   9]+
    |psi|^2 = 0.985
==== e(   7) =    -1.28354 eV ==== 
     psi = 0.277*[#   2]+0.277*[#  14]+0.220*[#   6]+0.220*[#  10]+
    |psi|^2 = 0.995
==== e(   8) =    -0.81135 eV ==== 
     psi = 0.321*[#   6]+0.321*[#  10]+0.176*[#   2]+0.176*[#  14]+
    |psi|^2 = 0.995

 k =   0.6458333333  0.0360843918  0.0000000000
==== e(   1) =   -13.48920 eV ==== 
     psi = 0.132*[#   5]+0.132*[#   9]+0.123*[#   1]+0.123*[#  13]+0.068*[#   3]+
          +0.068*[#  15]+0.061*[#   7]+0.061*[#  11]+0.058*[#   4]+0.058*[#  16]+
          +0.054*[#   8]+0.054*[#  12]+
    |psi|^2 = 0.992
==== e(   2) =   -13.42592 eV ==== 
     psi = 0.134*[#   1]+0.134*[#  13]+0.123*[#   5]+0.123*[#   9]+0.068*[#   7]+
          +0.068*[#  11]+0.060*[#   3]+0.060*[#  15]+0.058*[#   8]+0.058*[#  12]+
          +0.054*[#   4]+0.054*[#  16]+
    |psi|^2 = 0.993
==== e(   3) =   -12.87102 eV ==== 
     psi = 0.108*[#   5]+0.108*[#   9]+0.102*[#   3]+0.102*[#  15]+0.097*[#   1]+
          +0.097*[#  13]+0.095*[#   7]+0.095*[#  11]+0.049*[#   4]+0.049*[#  16]+
          +0.043*[#   8]+0.043*[#  12]+
    |psi|^2 = 0.990
==== e(   4) =   -12.81156 eV ==== 
     psi = 0.108*[#   1]+0.108*[#  13]+0.101*[#   7]+0.101*[#  11]+0.098*[#   5]+
          +0.098*[#   9]+0.096*[#   3]+0.096*[#  15]+0.049*[#   8]+0.049*[#  12]+
          +0.044*[#   4]+0.044*[#  16]+
    |psi|^2 = 0.992
==== e(   5) =   -10.83703 eV ==== 
     psi = 0.146*[#   4]+0.146*[#  16]+0.146*[#   8]+0.146*[#  12]+0.091*[#   7]+
          +0.091*[#  11]+0.090*[#   3]+0.090*[#  15]+0.009*[#   1]+0.009*[#  13]+
          +0.009*[#   5]+0.009*[#   9]+
    |psi|^2 = 0.982
==== e(   6) =   -10.79181 eV ==== 
     psi = 0.147*[#   8]+0.147*[#  12]+0.147*[#   4]+0.147*[#  16]+0.091*[#   3]+
          +0.091*[#  15]+0.090*[#   7]+0.090*[#  11]+0.009*[#   5]+0.009*[#   9]+
          +0.009*[#   1]+0.009*[#  13]+
    |psi|^2 = 0.985
==== e(   7) =    -1.28354 eV ==== 
     psi = 0.277*[#   6]+0.277*[#  10]+0.220*[#   2]+0.220*[#  14]+
    |psi|^2 = 0.995
==== e(   8) =    -0.81135 eV ==== 
     psi = 0.321*[#   2]+0.321*[#  14]+0.176*[#   6]+0.176*[#  10]+
    |psi|^2 = 0.995

 k =  -0.3125000000  0.5412658774  0.0000000000
==== e(   1) =   -13.65126 eV ==== 
     psi = 0.124*[#   1]+0.124*[#  13]+0.121*[#   5]+0.121*[#   9]+0.081*[#   8]+
          +0.081*[#  12]+0.080*[#   4]+0.080*[#  16]+0.045*[#   7]+0.045*[#  11]+
          +0.044*[#   3]+0.044*[#  15]+
    |psi|^2 = 0.990
==== e(   2) =   -13.58065 eV ==== 
     psi = 0.125*[#   5]+0.125*[#   9]+0.122*[#   1]+0.122*[#  13]+0.081*[#   4]+
          +0.081*[#  16]+0.080*[#   8]+0.080*[#  12]+0.045*[#   3]+0.045*[#  15]+
          +0.043*[#   7]+0.043*[#  11]+
    |psi|^2 = 0.992
==== e(   3) =   -12.65449 eV ==== 
     psi = 0.113*[#   1]+0.113*[#  13]+0.110*[#   5]+0.110*[#   9]+0.074*[#   8]+
          +0.074*[#  12]+0.071*[#   4]+0.071*[#  16]+0.064*[#   3]+0.064*[#  15]+
          +0.064*[#   7]+0.064*[#  11]+
    |psi|^2 = 0.993
==== e(   4) =   -12.59664 eV ==== 
     psi = 0.113*[#   5]+0.113*[#   9]+0.111*[#   1]+0.111*[#  13]+0.074*[#   4]+
          +0.074*[#  16]+0.071*[#   8]+0.071*[#  12]+0.064*[#   7]+0.064*[#  11]+
          +0.064*[#   3]+0.064*[#  15]+
    |psi|^2 = 0.994
==== e(   5) =   -10.89012 eV ==== 
     psi = 0.140*[#   3]+0.140*[#  15]+0.139*[#   7]+0.139*[#  11]+0.100*[#   8]+
          +0.100*[#  12]+0.100*[#   4]+0.100*[#  16]+0.006*[#   5]+0.006*[#   9]+
          +0.005*[#   1]+0.005*[#  13]+
    |psi|^2 = 0.981
==== e(   6) =   -10.84766 eV ==== 
     psi = 0.141*[#   7]+0.141*[#  11]+0.140*[#   3]+0.140*[#  15]+0.101*[#   4]+
          +0.101*[#  16]+0.101*[#   8]+0.101*[#  12]+0.006*[#   1]+0.006*[#  13]+
          +0.005*[#   5]+0.005*[#   9]+
    |psi|^2 = 0.984
==== e(   7) =    -1.37920 eV ==== 
     psi = 0.264*[#   2]+0.264*[#  14]+0.233*[#   6]+0.233*[#  10]+
    |psi|^2 = 0.995
==== e(   8) =    -0.85053 eV ==== 
     psi = 0.287*[#   6]+0.287*[#  10]+0.210*[#   2]+0.210*[#  14]+
    |psi|^2 = 0.995

 k =   0.6250000000 -0.0000000000  0.0000000000
==== e(   1) =   -13.65042 eV ==== 
     psi = 0.122*[#   1]+0.122*[#   5]+0.122*[#   9]+0.122*[#  13]+0.099*[#   3]+
          +0.099*[#   7]+0.099*[#  11]+0.099*[#  15]+0.026*[#   4]+0.026*[#   8]+
          +0.026*[#  12]+0.026*[#  16]+
    |psi|^2 = 0.990
==== e(   2) =   -13.58189 eV ==== 
     psi = 0.123*[#   1]+0.123*[#   5]+0.123*[#   9]+0.123*[#  13]+0.098*[#   3]+
          +0.098*[#   7]+0.098*[#  11]+0.098*[#  15]+0.027*[#   4]+0.027*[#   8]+
          +0.027*[#  12]+0.027*[#  16]+
    |psi|^2 = 0.992
==== e(   3) =   -12.65812 eV ==== 
     psi = 0.112*[#   1]+0.112*[#   5]+0.112*[#   9]+0.112*[#  13]+0.077*[#   3]+
          +0.077*[#   7]+0.076*[#  11]+0.076*[#  15]+0.060*[#   4]+0.060*[#   8]+
          +0.060*[#  12]+0.060*[#  16]+
    |psi|^2 = 0.992
==== e(   4) =   -12.59185 eV ==== 
     psi = 0.112*[#   1]+0.112*[#   5]+0.112*[#   9]+0.112*[#  13]+0.076*[#   3]+
          +0.076*[#   7]+0.076*[#  11]+0.076*[#  15]+0.060*[#   4]+0.060*[#   8]+
          +0.060*[#  12]+0.060*[#  16]+
    |psi|^2 = 0.994
==== e(   5) =   -10.89226 eV ==== 
     psi = 0.159*[#   4]+0.159*[#   8]+0.159*[#  12]+0.159*[#  16]+0.081*[#   3]+
          +0.081*[#   7]+0.081*[#  11]+0.081*[#  15]+0.005*[#   1]+0.005*[#   5]+
          +0.005*[#   9]+0.005*[#  13]+
    |psi|^2 = 0.981
==== e(   6) =   -10.84631 eV ==== 
     psi = 0.160*[#   4]+0.160*[#   8]+0.160*[#  12]+0.160*[#  16]+0.081*[#   3]+
          +0.081*[#   7]+0.081*[#  11]+0.081*[#  15]+0.005*[#   1]+0.005*[#   5]+
          +0.005*[#   9]+0.005*[#  13]+
    |psi|^2 = 0.984
==== e(   7) =    -1.36812 eV ==== 
     psi = 0.249*[#   2]+0.249*[#   6]+0.249*[#  10]+0.249*[#  14]+
    |psi|^2 = 0.995
==== e(   8) =    -0.85777 eV ==== 
     psi = 0.249*[#   2]+0.249*[#   6]+0.249*[#  10]+0.249*[#  14]+
    |psi|^2 = 0.995

 k =  -0.3125000000  0.5653221386  0.0000000000
==== e(   1) =   -13.36455 eV ==== 
     psi = 0.125*[#   1]+0.125*[#  13]+0.121*[#   5]+0.121*[#   9]+0.072*[#   8]+
          +0.072*[#  12]+0.070*[#   4]+0.070*[#  16]+0.055*[#   7]+0.054*[#  11]+
          +0.052*[#   3]+0.052*[#  15]+
    |psi|^2 = 0.992
==== e(   2) =   -13.29440 eV ==== 
     psi = 0.126*[#   5]+0.126*[#   9]+0.121*[#   1]+0.121*[#  13]+0.073*[#   4]+
          +0.073*[#  16]+0.070*[#   8]+0.070*[#  12]+0.054*[#   3]+0.054*[#  15]+
          +0.052*[#   7]+0.052*[#  11]+
    |psi|^2 = 0.993
==== e(   3) =   -12.88154 eV ==== 
     psi = 0.116*[#   1]+0.116*[#  13]+0.111*[#   5]+0.111*[#   9]+0.091*[#   8]+
          +0.091*[#  12]+0.086*[#   4]+0.086*[#  16]+0.046*[#   7]+0.046*[#  11]+
          +0.045*[#   3]+0.045*[#  15]+
    |psi|^2 = 0.992
==== e(   4) =   -12.82238 eV ==== 
     psi = 0.116*[#   5]+0.116*[#   9]+0.112*[#   1]+0.112*[#  13]+0.090*[#   4]+
          +0.090*[#  16]+0.087*[#   8]+0.087*[#  12]+0.046*[#   3]+0.046*[#  15]+
          +0.045*[#   7]+0.045*[#  11]+
    |psi|^2 = 0.993
==== e(   5) =   -10.99230 eV ==== 
     psi = 0.149*[#   3]+0.149*[#  15]+0.149*[#   7]+0.149*[#  11]+0.093*[#   8]+
          +0.093*[#  12]+0.093*[#   4]+0.093*[#  16]+0.003*[#   5]+0.003*[#   9]+
          +0.003*[#   1]+0.003*[#  13]+
    |psi|^2 = 0.980
==== e(   6) =   -10.94961 eV ==== 
     psi = 0.150*[#   7]+0.150*[#  11]+0.149*[#   3]+0.149*[#  15]+0.094*[#   4]+
          +0.094*[#  16]+0.094*[#   8]+0.094*[#  12]+0.003*[#   1]+0.003*[#  13]+
          +0.003*[#   5]+0.003*[#   9]+
    |psi|^2 = 0.983
==== e(   7) =    -1.09792 eV ==== 
     psi = 0.262*[#   2]+0.262*[#  14]+0.235*[#   6]+0.235*[#  10]+
    |psi|^2 = 0.994
==== e(   8) =    -0.56676 eV ==== 
     psi = 0.348*[#   6]+0.348*[#  10]+0.149*[#   2]+0.149*[#  14]+
    |psi|^2 = 0.994

 k =  -0.3333333333  0.5532940080  0.0000000000
==== e(   1) =   -13.36251 eV ==== 
     psi = 0.128*[#   1]+0.128*[#  13]+0.119*[#   5]+0.119*[#   9]+0.075*[#   8]+
          +0.075*[#  12]+0.071*[#   4]+0.071*[#  16]+0.055*[#   7]+0.055*[#  11]+
          +0.049*[#   3]+0.049*[#  15]+
    |psi|^2 = 0.992
==== e(   2) =   -13.29737 eV ==== 
     psi = 0.130*[#   5]+0.130*[#   9]+0.118*[#   1]+0.118*[#  13]+0.075*[#   4]+
          +0.075*[#  16]+0.069*[#   8]+0.069*[#  12]+0.056*[#   3]+0.056*[#  15]+
          +0.049*[#   7]+0.049*[#  11]+
    |psi|^2 = 0.993
==== e(   3) =   -12.88091 eV ==== 
     psi = 0.120*[#   1]+0.120*[#  13]+0.108*[#   5]+0.108*[#   9]+0.083*[#   7]+
          +0.083*[#  11]+0.078*[#   3]+0.078*[#  15]+0.057*[#   8]+0.057*[#  12]+
          +0.050*[#   4]+0.050*[#  16]+
    |psi|^2 = 0.992
==== e(   4) =   -12.82178 eV ==== 
     psi = 0.119*[#   5]+0.119*[#   9]+0.109*[#   1]+0.109*[#  13]+0.083*[#   3]+
          +0.083*[#  15]+0.079*[#   7]+0.079*[#  11]+0.056*[#   4]+0.056*[#  16]+
          +0.050*[#   8]+0.050*[#  12]+
    |psi|^2 = 0.993
==== e(   5) =   -10.99297 eV ==== 
     psi = 0.125*[#   8]+0.125*[#  12]+0.124*[#   4]+0.124*[#  16]+0.118*[#   3]+
          +0.118*[#  15]+0.117*[#   7]+0.117*[#  11]+0.003*[#   5]+0.003*[#   9]+
          +0.002*[#   1]+0.002*[#  13]+
    |psi|^2 = 0.980
==== e(   6) =   -10.94925 eV ==== 
     psi = 0.126*[#   4]+0.126*[#  16]+0.125*[#   8]+0.125*[#  12]+0.118*[#   7]+
          +0.118*[#  11]+0.117*[#   3]+0.117*[#  15]+0.003*[#   1]+0.003*[#  13]+
          +0.003*[#   5]+0.003*[#   9]+
    |psi|^2 = 0.983
==== e(   7) =    -1.08134 eV ==== 
     psi = 0.284*[#   2]+0.284*[#  14]+0.213*[#   6]+0.213*[#  10]+
    |psi|^2 = 0.994
==== e(   8) =    -0.61691 eV ==== 
     psi = 0.416*[#   6]+0.416*[#  10]+0.081*[#   2]+0.081*[#  14]+
    |psi|^2 = 0.994

 k =   0.6458333333  0.0120281306  0.0000000000
==== e(   1) =   -13.36223 eV ==== 
     psi = 0.126*[#   5]+0.126*[#   9]+0.121*[#   1]+0.121*[#  13]+0.084*[#   3]+
          +0.084*[#  15]+0.080*[#   7]+0.080*[#  11]+0.044*[#   4]+0.044*[#  16]+
          +0.042*[#   8]+0.042*[#  12]+
    |psi|^2 = 0.992
==== e(   2) =   -13.29778 eV ==== 
     psi = 0.127*[#   1]+0.127*[#  13]+0.120*[#   5]+0.120*[#   9]+0.083*[#   7]+
          +0.083*[#  11]+0.078*[#   3]+0.078*[#  15]+0.045*[#   8]+0.045*[#  12]+
          +0.042*[#   4]+0.042*[#  16]+
    |psi|^2 = 0.993
==== e(   3) =   -12.88428 eV ==== 
     psi = 0.117*[#   5]+0.117*[#   9]+0.110*[#   1]+0.110*[#  13]+0.077*[#   3]+
          +0.077*[#  15]+0.073*[#   7]+0.073*[#  11]+0.061*[#   4]+0.061*[#  16]+
          +0.058*[#   8]+0.058*[#  12]+
    |psi|^2 = 0.992
==== e(   4) =   -12.81801 eV ==== 
     psi = 0.117*[#   1]+0.117*[#  13]+0.112*[#   5]+0.112*[#   9]+0.076*[#   7]+
          +0.076*[#  11]+0.073*[#   3]+0.073*[#  15]+0.061*[#   8]+0.061*[#  12]+
          +0.058*[#   4]+0.058*[#  16]+
    |psi|^2 = 0.993
==== e(   5) =   -10.99379 eV ==== 
     psi = 0.145*[#   4]+0.145*[#  16]+0.145*[#   8]+0.145*[#  12]+0.098*[#   7]+
          +0.098*[#  11]+0.097*[#   3]+0.097*[#  15]+0.003*[#   1]+0.003*[#  13]+
          +0.003*[#   5]+0.003*[#   9]+
    |psi|^2 = 0.980
==== e(   6) =   -10.94871 eV ==== 
     psi = 0.146*[#   8]+0.146*[#  12]+0.146*[#   4]+0.146*[#  16]+0.097*[#   3]+
          +0.097*[#  15]+0.097*[#   7]+0.097*[#  11]+0.003*[#   5]+0.003*[#   9]+
          +0.003*[#   1]+0.003*[#  13]+
    |psi|^2 = 0.983
==== e(   7) =    -1.07562 eV ==== 
     psi = 0.269*[#   6]+0.269*[#  10]+0.228*[#   2]+0.228*[#  14]+
    |psi|^2 = 0.994
==== e(   8) =    -0.59956 eV ==== 
     psi = 0.369*[#   2]+0.369*[#  14]+0.128*[#   6]+0.128*[#  10]+
    |psi|^2 = 0.994

 k =  -0.3333333333 -0.5532940080  0.0000000000
==== e(   1) =   -13.36251 eV ==== 
     psi = 0.128*[#   5]+0.128*[#   9]+0.119*[#   1]+0.119*[#  13]+0.075*[#   4]+
          +0.075*[#  16]+0.071*[#   8]+0.071*[#  12]+0.055*[#   3]+0.055*[#  15]+
          +0.049*[#   7]+0.049*[#  11]+
    |psi|^2 = 0.992
==== e(   2) =   -13.29737 eV ==== 
     psi = 0.130*[#   1]+0.130*[#  13]+0.118*[#   5]+0.118*[#   9]+0.075*[#   8]+
          +0.075*[#  12]+0.069*[#   4]+0.069*[#  16]+0.056*[#   7]+0.056*[#  11]+
          +0.049*[#   3]+0.049*[#  15]+
    |psi|^2 = 0.993
==== e(   3) =   -12.88091 eV ==== 
     psi = 0.120*[#   5]+0.120*[#   9]+0.108*[#   1]+0.108*[#  13]+0.083*[#   3]+
          +0.083*[#  15]+0.078*[#   7]+0.078*[#  11]+0.057*[#   4]+0.057*[#  16]+
          +0.050*[#   8]+0.050*[#  12]+
    |psi|^2 = 0.992
==== e(   4) =   -12.82178 eV ==== 
     psi = 0.119*[#   1]+0.119*[#  13]+0.109*[#   5]+0.109*[#   9]+0.083*[#   7]+
          +0.083*[#  11]+0.079*[#   3]+0.079*[#  15]+0.056*[#   8]+0.056*[#  12]+
          +0.050*[#   4]+0.050*[#  16]+
    |psi|^2 = 0.993
==== e(   5) =   -10.99297 eV ==== 
     psi = 0.125*[#   4]+0.125*[#  16]+0.124*[#   8]+0.124*[#  12]+0.118*[#   7]+
          +0.118*[#  11]+0.117*[#   3]+0.117*[#  15]+0.003*[#   1]+0.003*[#  13]+
          +0.002*[#   5]+0.002*[#   9]+
    |psi|^2 = 0.980
==== e(   6) =   -10.94925 eV ==== 
     psi = 0.126*[#   8]+0.126*[#  12]+0.125*[#   4]+0.125*[#  16]+0.118*[#   3]+
          +0.118*[#  15]+0.117*[#   7]+0.117*[#  11]+0.003*[#   5]+0.003*[#   9]+
          +0.003*[#   1]+0.003*[#  13]+
    |psi|^2 = 0.983
==== e(   7) =    -1.08134 eV ==== 
     psi = 0.284*[#   6]+0.284*[#  10]+0.213*[#   2]+0.213*[#  14]+
    |psi|^2 = 0.994
==== e(   8) =    -0.61691 eV ==== 
     psi = 0.416*[#   2]+0.416*[#  14]+0.081*[#   6]+0.081*[#  10]+
    |psi|^2 = 0.994

 k =   0.6458333333 -0.0120281306  0.0000000000
==== e(   1) =   -13.36223 eV ==== 
     psi = 0.126*[#   1]+0.126*[#  13]+0.121*[#   5]+0.121*[#   9]+0.084*[#   7]+
          +0.084*[#  11]+0.080*[#   3]+0.080*[#  15]+0.044*[#   8]+0.044*[#  12]+
          +0.042*[#   4]+0.042*[#  16]+
    |psi|^2 = 0.992
==== e(   2) =   -13.29778 eV ==== 
     psi = 0.127*[#   5]+0.127*[#   9]+0.120*[#   1]+0.120*[#  13]+0.083*[#   3]+
          +0.083*[#  15]+0.078*[#   7]+0.078*[#  11]+0.045*[#   4]+0.045*[#  16]+
          +0.042*[#   8]+0.042*[#  12]+
    |psi|^2 = 0.993
==== e(   3) =   -12.88428 eV ==== 
     psi = 0.117*[#   1]+0.117*[#  13]+0.110*[#   5]+0.110*[#   9]+0.077*[#   7]+
          +0.077*[#  11]+0.073*[#   3]+0.073*[#  15]+0.061*[#   8]+0.061*[#  12]+
          +0.058*[#   4]+0.058*[#  16]+
    |psi|^2 = 0.992
==== e(   4) =   -12.81801 eV ==== 
     psi = 0.117*[#   5]+0.117*[#   9]+0.112*[#   1]+0.112*[#  13]+0.076*[#   3]+
          +0.076*[#  15]+0.073*[#   7]+0.073*[#  11]+0.061*[#   4]+0.061*[#  16]+
          +0.058*[#   8]+0.058*[#  12]+
    |psi|^2 = 0.993
==== e(   5) =   -10.99379 eV ==== 
     psi = 0.145*[#   8]+0.145*[#  12]+0.145*[#   4]+0.145*[#  16]+0.098*[#   3]+
          +0.098*[#  15]+0.097*[#   7]+0.097*[#  11]+0.003*[#   5]+0.003*[#   9]+
          +0.003*[#   1]+0.003*[#  13]+
    |psi|^2 = 0.980
==== e(   6) =   -10.94871 eV ==== 
     psi = 0.146*[#   4]+0.146*[#  16]+0.146*[#   8]+0.146*[#  12]+0.097*[#   7]+
          +0.097*[#  11]+0.097*[#   3]+0.097*[#  15]+0.003*[#   1]+0.003*[#  13]+
          +0.003*[#   5]+0.003*[#   9]+
    |psi|^2 = 0.983
==== e(   7) =    -1.07562 eV ==== 
     psi = 0.269*[#   2]+0.269*[#  14]+0.228*[#   6]+0.228*[#  10]+
    |psi|^2 = 0.994
==== e(   8) =    -0.59956 eV ==== 
     psi = 0.369*[#   6]+0.369*[#  10]+0.128*[#   2]+0.128*[#  14]+
    |psi|^2 = 0.994

Lowdin Charges: 

     Atom #   1: total charge =   3.9572, s =  0.9179, 
     Atom #   1: total charge =   3.9572, p =  3.0393, pz=  0.9890, px=  1.0251, py=  1.0251, 
     Atom #   2: total charge =   3.9572, s =  0.9179, 
     Atom #   2: total charge =   3.9572, p =  3.0393, pz=  0.9890, px=  1.0251, py=  1.0251, 
     Atom #   3: total charge =   3.9572, s =  0.9179, 
     Atom #   3: total charge =   3.9572, p =  3.0393, pz=  0.9890, px=  1.0251, py=  1.0251, 
     Atom #   4: total charge =   3.9572, s =  0.9179, 
     Atom #   4: total charge =   3.9572, p =  3.0393, pz=  0.9890, px=  1.0251, py=  1.0251, 
     Spilling Parameter:   0.0107
