
     Program PWSCF v.5.1 starts on  1May2020 at  3:39:51 

     This program is part of the open-source Quantum ESPRESSO suite
     for quantum simulation of materials; please cite
         "P. Giannozzi et al., J. Phys.:Condens. Matter 21 395502 (2009);
          URL http://www.quantum-espresso.org", 
     in publications or presentations arising from this work. More details at
     http://www.quantum-espresso.org/quote

     Parallel version (MPI), running on     1 processors
     Waiting for input...
     Reading input from standard input

     Current dimensions of program PWSCF are:
     Max number of different atomic species (ntypx) = 10
     Max number of k-points (npk) =  40000
     Max angular momentum in pseudopotentials (lmaxx) =  3

     Atomic positions and unit cell read from directory:
     ../tmp/g.dos1.save/


     IMPORTANT: XC functional enforced from input :
     Exchange-correlation      = PBE ( 1  4  3  4 0)
     Any further DFT definition will be discarded
     Please, verify this is what you really want

               file C.pbe-rrkjus.UPF: wavefunction(s)  2S 2P renormalized

     Subspace diagonalization in iterative solution of the eigenvalue problem:
     a serial algorithm will be used


     G-vector sticks info
     --------------------
     sticks:   dense  smooth     PW     G-vecs:    dense   smooth      PW
     Sum         595     241     85                96043    24369    4587

     Generating pointlists ...
     new r_m :   0.2381 (alat units)  1.1104 (a.u.) for type    1


     bravais-lattice index     =           12
     lattice parameter (alat)  =       4.6627  a.u.
     unit-cell volume          =     711.6007 (a.u.)^3
     number of atoms/cell      =            4
     number of atomic types    =            1
     number of electrons       =        16.00
     number of Kohn-Sham states=           12
     kinetic-energy cutoff     =      40.0000  Ry
     charge density cutoff     =     400.0000  Ry
     Exchange-correlation      = PBE ( 1  4  3  4 0)

     celldm(1)=   4.662710  celldm(2)=   1.000000  celldm(3)=   8.105698
     celldm(4)=  -0.500000  celldm(5)=   0.000000  celldm(6)=   0.000000

     crystal axes: (cart. coord. in units of alat)
               a(1) = (   1.000000   0.000000   0.000000 )  
               a(2) = (  -0.500000   0.866025   0.000000 )  
               a(3) = (   0.000000   0.000000   8.105698 )  

     reciprocal axes: (cart. coord. in units 2 pi/alat)
               b(1) = (  1.000000  0.577350 -0.000000 )  
               b(2) = (  0.000000  1.154701  0.000000 )  
               b(3) = (  0.000000 -0.000000  0.123370 )  


     PseudoPot. # 1 for C  read from file:
     ../pseudo/C.pbe-rrkjus.UPF
     MD5 check sum: 00fb224312de0c5b6853bd333518df6f
     Pseudo is Ultrasoft, Zval =  4.0
     Generated by new atomic code, or converted to UPF format
     Using radial grid of  627 points,  4 beta functions with: 
                l(1) =   0
                l(2) =   0
                l(3) =   1
                l(4) =   1
     Q(r) pseudized with 0 coefficients 


     atomic species   valence    mass     pseudopotential
        C              4.00    12.01100     C ( 1.00)

     Starting magnetic structure 
     atomic species   magnetization
        C           -0.500

     No symmetry found
          (note:  3 additional sym.ops. were found but ignored
           their fractional translations are incommensurate with FFT grid)

                                    s                        frac. trans.

      isym =  1     identity                                     

 cryst.   s( 1) = (     1          0          0      )
                  (     0          1          0      )
                  (     0          0          1      )

 cart.    s( 1) = (  1.0000000  0.0000000  0.0000000 )
                  (  0.0000000  1.0000000  0.0000000 )
                  (  0.0000000  0.0000000  1.0000000 )


     point group C_1 (1)    
     there are  1 classes
     the character table:

       E    
A      1.00

     the symmetry operations in each class:
     E        1

   Cartesian axes

     site n.     atom                  positions (alat units)
         1           C   tau(   1) = (   0.0000000   0.0000000   2.0264246  )
         2           C   tau(   2) = (   0.0000000   0.5773284   2.0264246  )
         3           C   tau(   3) = (   0.1621140   0.0000000   3.4368161  )
         4           C   tau(   4) = (   0.1621140   0.5773284   3.4368161  )

   Crystallographic axes

     site n.     atom                  positions (cryst. coord.)
         1           C   tau(   1) = (  0.0000000  0.0000000  0.2500000  )
         2           C   tau(   2) = (  0.3333207  0.6666414  0.2500000  )
         3           C   tau(   3) = (  0.1621140  0.0000000  0.4240000  )
         4           C   tau(   4) = (  0.4954347  0.6666414  0.4240000  )

     number of k points=  2308 (tetrahedron method)
                       cart. coord. in units 2pi/alat
        k(    1) = (   0.0000000   0.0000000   0.0000000), wk =   0.0004340
        k(    2) = (   0.0000000   0.0240563   0.0000000), wk =   0.0008681
        k(    3) = (   0.0000000   0.0481125   0.0000000), wk =   0.0008681
        k(    4) = (   0.0000000   0.0721688   0.0000000), wk =   0.0008681
        k(    5) = (   0.0000000   0.0962250   0.0000000), wk =   0.0008681
        k(    6) = (   0.0000000   0.1202813   0.0000000), wk =   0.0008681
        k(    7) = (   0.0000000   0.1443376   0.0000000), wk =   0.0008681
        k(    8) = (   0.0000000   0.1683938   0.0000000), wk =   0.0008681
        k(    9) = (   0.0000000   0.1924501   0.0000000), wk =   0.0008681
        k(   10) = (   0.0000000   0.2165064   0.0000000), wk =   0.0008681
        k(   11) = (   0.0000000   0.2405626   0.0000000), wk =   0.0008681
        k(   12) = (   0.0000000   0.2646189   0.0000000), wk =   0.0008681
        k(   13) = (   0.0000000   0.2886751   0.0000000), wk =   0.0008681
        k(   14) = (   0.0000000   0.3127314   0.0000000), wk =   0.0008681
        k(   15) = (   0.0000000   0.3367877   0.0000000), wk =   0.0008681
        k(   16) = (   0.0000000   0.3608439   0.0000000), wk =   0.0008681
        k(   17) = (   0.0000000   0.3849002   0.0000000), wk =   0.0008681
        k(   18) = (   0.0000000   0.4089564   0.0000000), wk =   0.0008681
        k(   19) = (   0.0000000   0.4330127   0.0000000), wk =   0.0008681
        k(   20) = (   0.0000000   0.4570690   0.0000000), wk =   0.0008681
        k(   21) = (   0.0000000   0.4811252   0.0000000), wk =   0.0008681
        k(   22) = (   0.0000000   0.5051815   0.0000000), wk =   0.0008681
        k(   23) = (   0.0000000   0.5292377   0.0000000), wk =   0.0008681
        k(   24) = (   0.0000000   0.5532940   0.0000000), wk =   0.0008681
        k(   25) = (   0.0000000  -0.5773503   0.0000000), wk =   0.0004340
        k(   26) = (   0.0208333   0.0360844   0.0000000), wk =   0.0008681
        k(   27) = (   0.0208333   0.0601407   0.0000000), wk =   0.0008681
        k(   28) = (   0.0208333   0.0841969   0.0000000), wk =   0.0008681
        k(   29) = (   0.0208333   0.1082532   0.0000000), wk =   0.0008681
        k(   30) = (   0.0208333   0.1323094   0.0000000), wk =   0.0008681
        k(   31) = (   0.0208333   0.1563657   0.0000000), wk =   0.0008681
        k(   32) = (   0.0208333   0.1804220   0.0000000), wk =   0.0008681
        k(   33) = (   0.0208333   0.2044782   0.0000000), wk =   0.0008681
        k(   34) = (   0.0208333   0.2285345   0.0000000), wk =   0.0008681
        k(   35) = (   0.0208333   0.2525907   0.0000000), wk =   0.0008681
        k(   36) = (   0.0208333   0.2766470   0.0000000), wk =   0.0008681
        k(   37) = (   0.0208333   0.3007033   0.0000000), wk =   0.0008681
        k(   38) = (   0.0208333   0.3247595   0.0000000), wk =   0.0008681
        k(   39) = (   0.0208333   0.3488158   0.0000000), wk =   0.0008681
        k(   40) = (   0.0208333   0.3728720   0.0000000), wk =   0.0008681
        k(   41) = (   0.0208333   0.3969283   0.0000000), wk =   0.0008681
        k(   42) = (   0.0208333   0.4209846   0.0000000), wk =   0.0008681
        k(   43) = (   0.0208333   0.4450408   0.0000000), wk =   0.0008681
        k(   44) = (   0.0208333   0.4690971   0.0000000), wk =   0.0008681
        k(   45) = (   0.0208333   0.4931534   0.0000000), wk =   0.0008681
        k(   46) = (   0.0208333   0.5172096   0.0000000), wk =   0.0008681
        k(   47) = (   0.0208333   0.5412659   0.0000000), wk =   0.0008681
        k(   48) = (   0.0208333   0.5653221   0.0000000), wk =   0.0008681
        k(   49) = (   0.0416667   0.0721688   0.0000000), wk =   0.0008681
        k(   50) = (   0.0416667   0.0962250   0.0000000), wk =   0.0008681
        k(   51) = (   0.0416667   0.1202813   0.0000000), wk =   0.0008681
        k(   52) = (   0.0416667   0.1443376   0.0000000), wk =   0.0008681
        k(   53) = (   0.0416667   0.1683938   0.0000000), wk =   0.0008681
        k(   54) = (   0.0416667   0.1924501   0.0000000), wk =   0.0008681
        k(   55) = (   0.0416667   0.2165064   0.0000000), wk =   0.0008681
        k(   56) = (   0.0416667   0.2405626   0.0000000), wk =   0.0008681
        k(   57) = (   0.0416667   0.2646189   0.0000000), wk =   0.0008681
        k(   58) = (   0.0416667   0.2886751   0.0000000), wk =   0.0008681
        k(   59) = (   0.0416667   0.3127314   0.0000000), wk =   0.0008681
        k(   60) = (   0.0416667   0.3367877   0.0000000), wk =   0.0008681
        k(   61) = (   0.0416667   0.3608439   0.0000000), wk =   0.0008681
        k(   62) = (   0.0416667   0.3849002   0.0000000), wk =   0.0008681
        k(   63) = (   0.0416667   0.4089564   0.0000000), wk =   0.0008681
        k(   64) = (   0.0416667   0.4330127   0.0000000), wk =   0.0008681
        k(   65) = (   0.0416667   0.4570690   0.0000000), wk =   0.0008681
        k(   66) = (   0.0416667   0.4811252   0.0000000), wk =   0.0008681
        k(   67) = (   0.0416667   0.5051815   0.0000000), wk =   0.0008681
        k(   68) = (   0.0416667   0.5292377   0.0000000), wk =   0.0008681
        k(   69) = (   0.0416667   0.5532940   0.0000000), wk =   0.0008681
        k(   70) = (   0.0416667   0.5773503   0.0000000), wk =   0.0008681
        k(   71) = (   0.0625000   0.1082532   0.0000000), wk =   0.0008681
        k(   72) = (   0.0625000   0.1323094   0.0000000), wk =   0.0008681
        k(   73) = (   0.0625000   0.1563657   0.0000000), wk =   0.0008681
        k(   74) = (   0.0625000   0.1804220   0.0000000), wk =   0.0008681
        k(   75) = (   0.0625000   0.2044782   0.0000000), wk =   0.0008681
        k(   76) = (   0.0625000   0.2285345   0.0000000), wk =   0.0008681
        k(   77) = (   0.0625000   0.2525907   0.0000000), wk =   0.0008681
        k(   78) = (   0.0625000   0.2766470   0.0000000), wk =   0.0008681
        k(   79) = (   0.0625000   0.3007033   0.0000000), wk =   0.0008681
        k(   80) = (   0.0625000   0.3247595   0.0000000), wk =   0.0008681
        k(   81) = (   0.0625000   0.3488158   0.0000000), wk =   0.0008681
        k(   82) = (   0.0625000   0.3728720   0.0000000), wk =   0.0008681
        k(   83) = (   0.0625000   0.3969283   0.0000000), wk =   0.0008681
        k(   84) = (   0.0625000   0.4209846   0.0000000), wk =   0.0008681
        k(   85) = (   0.0625000   0.4450408   0.0000000), wk =   0.0008681
        k(   86) = (   0.0625000   0.4690971   0.0000000), wk =   0.0008681
        k(   87) = (   0.0625000   0.4931534   0.0000000), wk =   0.0008681
        k(   88) = (   0.0625000   0.5172096   0.0000000), wk =   0.0008681
        k(   89) = (   0.0625000   0.5412659   0.0000000), wk =   0.0008681
        k(   90) = (   0.0625000   0.5653221   0.0000000), wk =   0.0008681
        k(   91) = (   0.0833333   0.1443376   0.0000000), wk =   0.0008681
        k(   92) = (   0.0833333   0.1683938   0.0000000), wk =   0.0008681
        k(   93) = (   0.0833333   0.1924501   0.0000000), wk =   0.0008681
        k(   94) = (   0.0833333   0.2165064   0.0000000), wk =   0.0008681
        k(   95) = (   0.0833333   0.2405626   0.0000000), wk =   0.0008681
        k(   96) = (   0.0833333   0.2646189   0.0000000), wk =   0.0008681
        k(   97) = (   0.0833333   0.2886751   0.0000000), wk =   0.0008681
        k(   98) = (   0.0833333   0.3127314   0.0000000), wk =   0.0008681
        k(   99) = (   0.0833333   0.3367877   0.0000000), wk =   0.0008681
        k(  100) = (   0.0833333   0.3608439   0.0000000), wk =   0.0008681
        k(  101) = (   0.0833333   0.3849002   0.0000000), wk =   0.0008681
        k(  102) = (   0.0833333   0.4089564   0.0000000), wk =   0.0008681
        k(  103) = (   0.0833333   0.4330127   0.0000000), wk =   0.0008681
        k(  104) = (   0.0833333   0.4570690   0.0000000), wk =   0.0008681
        k(  105) = (   0.0833333   0.4811252   0.0000000), wk =   0.0008681
        k(  106) = (   0.0833333   0.5051815   0.0000000), wk =   0.0008681
        k(  107) = (   0.0833333   0.5292377   0.0000000), wk =   0.0008681
        k(  108) = (   0.0833333   0.5532940   0.0000000), wk =   0.0008681
        k(  109) = (   0.0833333   0.5773503   0.0000000), wk =   0.0008681
        k(  110) = (   0.1041667   0.1804220   0.0000000), wk =   0.0008681
        k(  111) = (   0.1041667   0.2044782   0.0000000), wk =   0.0008681
        k(  112) = (   0.1041667   0.2285345   0.0000000), wk =   0.0008681
        k(  113) = (   0.1041667   0.2525907   0.0000000), wk =   0.0008681
        k(  114) = (   0.1041667   0.2766470   0.0000000), wk =   0.0008681
        k(  115) = (   0.1041667   0.3007033   0.0000000), wk =   0.0008681
        k(  116) = (   0.1041667   0.3247595   0.0000000), wk =   0.0008681
        k(  117) = (   0.1041667   0.3488158   0.0000000), wk =   0.0008681
        k(  118) = (   0.1041667   0.3728720   0.0000000), wk =   0.0008681
        k(  119) = (   0.1041667   0.3969283   0.0000000), wk =   0.0008681
        k(  120) = (   0.1041667   0.4209846   0.0000000), wk =   0.0008681
        k(  121) = (   0.1041667   0.4450408   0.0000000), wk =   0.0008681
        k(  122) = (   0.1041667   0.4690971   0.0000000), wk =   0.0008681
        k(  123) = (   0.1041667   0.4931534   0.0000000), wk =   0.0008681
        k(  124) = (   0.1041667   0.5172096   0.0000000), wk =   0.0008681
        k(  125) = (   0.1041667   0.5412659   0.0000000), wk =   0.0008681
        k(  126) = (   0.1041667   0.5653221   0.0000000), wk =   0.0008681
        k(  127) = (   0.1250000   0.2165064   0.0000000), wk =   0.0008681
        k(  128) = (   0.1250000   0.2405626   0.0000000), wk =   0.0008681
        k(  129) = (   0.1250000   0.2646189   0.0000000), wk =   0.0008681
        k(  130) = (   0.1250000   0.2886751   0.0000000), wk =   0.0008681
        k(  131) = (   0.1250000   0.3127314   0.0000000), wk =   0.0008681
        k(  132) = (   0.1250000   0.3367877   0.0000000), wk =   0.0008681
        k(  133) = (   0.1250000   0.3608439   0.0000000), wk =   0.0008681
        k(  134) = (   0.1250000   0.3849002   0.0000000), wk =   0.0008681
        k(  135) = (   0.1250000   0.4089564   0.0000000), wk =   0.0008681
        k(  136) = (   0.1250000   0.4330127   0.0000000), wk =   0.0008681
        k(  137) = (   0.1250000   0.4570690   0.0000000), wk =   0.0008681
        k(  138) = (   0.1250000   0.4811252   0.0000000), wk =   0.0008681
        k(  139) = (   0.1250000   0.5051815   0.0000000), wk =   0.0008681
        k(  140) = (   0.1250000   0.5292377   0.0000000), wk =   0.0008681
        k(  141) = (   0.1250000   0.5532940   0.0000000), wk =   0.0008681
        k(  142) = (   0.1250000   0.5773503   0.0000000), wk =   0.0008681
        k(  143) = (   0.1458333   0.2525907   0.0000000), wk =   0.0008681
        k(  144) = (   0.1458333   0.2766470   0.0000000), wk =   0.0008681
        k(  145) = (   0.1458333   0.3007033   0.0000000), wk =   0.0008681
        k(  146) = (   0.1458333   0.3247595   0.0000000), wk =   0.0008681
        k(  147) = (   0.1458333   0.3488158   0.0000000), wk =   0.0008681
        k(  148) = (   0.1458333   0.3728720   0.0000000), wk =   0.0008681
        k(  149) = (   0.1458333   0.3969283   0.0000000), wk =   0.0008681
        k(  150) = (   0.1458333   0.4209846   0.0000000), wk =   0.0008681
        k(  151) = (   0.1458333   0.4450408   0.0000000), wk =   0.0008681
        k(  152) = (   0.1458333   0.4690971   0.0000000), wk =   0.0008681
        k(  153) = (   0.1458333   0.4931534   0.0000000), wk =   0.0008681
        k(  154) = (   0.1458333   0.5172096   0.0000000), wk =   0.0008681
        k(  155) = (   0.1458333   0.5412659   0.0000000), wk =   0.0008681
        k(  156) = (   0.1458333   0.5653221   0.0000000), wk =   0.0008681
        k(  157) = (   0.1666667   0.2886751   0.0000000), wk =   0.0008681
        k(  158) = (   0.1666667   0.3127314   0.0000000), wk =   0.0008681
        k(  159) = (   0.1666667   0.3367877   0.0000000), wk =   0.0008681
        k(  160) = (   0.1666667   0.3608439   0.0000000), wk =   0.0008681
        k(  161) = (   0.1666667   0.3849002   0.0000000), wk =   0.0008681
        k(  162) = (   0.1666667   0.4089564   0.0000000), wk =   0.0008681
        k(  163) = (   0.1666667   0.4330127   0.0000000), wk =   0.0008681
        k(  164) = (   0.1666667   0.4570690   0.0000000), wk =   0.0008681
        k(  165) = (   0.1666667   0.4811252   0.0000000), wk =   0.0008681
        k(  166) = (   0.1666667   0.5051815   0.0000000), wk =   0.0008681
        k(  167) = (   0.1666667   0.5292377   0.0000000), wk =   0.0008681
        k(  168) = (   0.1666667   0.5532940   0.0000000), wk =   0.0008681
        k(  169) = (   0.1666667   0.5773503   0.0000000), wk =   0.0008681
        k(  170) = (   0.1875000   0.3247595   0.0000000), wk =   0.0008681
        k(  171) = (   0.1875000   0.3488158   0.0000000), wk =   0.0008681
        k(  172) = (   0.1875000   0.3728720   0.0000000), wk =   0.0008681
        k(  173) = (   0.1875000   0.3969283   0.0000000), wk =   0.0008681
        k(  174) = (   0.1875000   0.4209846   0.0000000), wk =   0.0008681
        k(  175) = (   0.1875000   0.4450408   0.0000000), wk =   0.0008681
        k(  176) = (   0.1875000   0.4690971   0.0000000), wk =   0.0008681
        k(  177) = (   0.1875000   0.4931534   0.0000000), wk =   0.0008681
        k(  178) = (   0.1875000   0.5172096   0.0000000), wk =   0.0008681
        k(  179) = (   0.1875000   0.5412659   0.0000000), wk =   0.0008681
        k(  180) = (   0.1875000   0.5653221   0.0000000), wk =   0.0008681
        k(  181) = (   0.2083333   0.3608439   0.0000000), wk =   0.0008681
        k(  182) = (   0.2083333   0.3849002   0.0000000), wk =   0.0008681
        k(  183) = (   0.2083333   0.4089564   0.0000000), wk =   0.0008681
        k(  184) = (   0.2083333   0.4330127   0.0000000), wk =   0.0008681
        k(  185) = (   0.2083333   0.4570690   0.0000000), wk =   0.0008681
        k(  186) = (   0.2083333   0.4811252   0.0000000), wk =   0.0008681
        k(  187) = (   0.2083333   0.5051815   0.0000000), wk =   0.0008681
        k(  188) = (   0.2083333   0.5292377   0.0000000), wk =   0.0008681
        k(  189) = (   0.2083333   0.5532940   0.0000000), wk =   0.0008681
        k(  190) = (   0.2083333   0.5773503   0.0000000), wk =   0.0008681
        k(  191) = (   0.2291667   0.3969283   0.0000000), wk =   0.0008681
        k(  192) = (   0.2291667   0.4209846   0.0000000), wk =   0.0008681
        k(  193) = (   0.2291667   0.4450408   0.0000000), wk =   0.0008681
        k(  194) = (   0.2291667   0.4690971   0.0000000), wk =   0.0008681
        k(  195) = (   0.2291667   0.4931534   0.0000000), wk =   0.0008681
        k(  196) = (   0.2291667   0.5172096   0.0000000), wk =   0.0008681
        k(  197) = (   0.2291667   0.5412659   0.0000000), wk =   0.0008681
        k(  198) = (   0.2291667   0.5653221   0.0000000), wk =   0.0008681
        k(  199) = (   0.2500000   0.4330127   0.0000000), wk =   0.0008681
        k(  200) = (   0.2500000   0.4570690   0.0000000), wk =   0.0008681
        k(  201) = (   0.2500000   0.4811252   0.0000000), wk =   0.0008681
        k(  202) = (   0.2500000   0.5051815   0.0000000), wk =   0.0008681
        k(  203) = (   0.2500000   0.5292377   0.0000000), wk =   0.0008681
        k(  204) = (   0.2500000   0.5532940   0.0000000), wk =   0.0008681
        k(  205) = (   0.2500000   0.5773503   0.0000000), wk =   0.0008681
        k(  206) = (   0.2708333   0.4690971   0.0000000), wk =   0.0008681
        k(  207) = (   0.2708333   0.4931534   0.0000000), wk =   0.0008681
        k(  208) = (   0.2708333   0.5172096   0.0000000), wk =   0.0008681
        k(  209) = (   0.2708333   0.5412659   0.0000000), wk =   0.0008681
        k(  210) = (   0.2708333   0.5653221   0.0000000), wk =   0.0008681
        k(  211) = (   0.2916667   0.5051815   0.0000000), wk =   0.0008681
        k(  212) = (   0.2916667   0.5292377   0.0000000), wk =   0.0008681
        k(  213) = (   0.2916667   0.5532940   0.0000000), wk =   0.0008681
        k(  214) = (   0.2916667   0.5773503   0.0000000), wk =   0.0008681
        k(  215) = (   0.3125000   0.5412659   0.0000000), wk =   0.0008681
        k(  216) = (   0.3125000   0.5653221   0.0000000), wk =   0.0008681
        k(  217) = (   0.3333333   0.5773503   0.0000000), wk =   0.0008681
        k(  218) = (  -0.0208333   0.0120281   0.0000000), wk =   0.0008681
        k(  219) = (   0.0208333   0.0120281   0.0000000), wk =   0.0008681
        k(  220) = (  -0.0416667   0.0240563   0.0000000), wk =   0.0008681
        k(  221) = (   0.0416667   0.0240563   0.0000000), wk =   0.0008681
        k(  222) = (  -0.0625000   0.0360844   0.0000000), wk =   0.0008681
        k(  223) = (   0.0625000   0.0360844   0.0000000), wk =   0.0008681
        k(  224) = (  -0.0833333   0.0481125   0.0000000), wk =   0.0008681
        k(  225) = (   0.0833333   0.0481125   0.0000000), wk =   0.0008681
        k(  226) = (  -0.1041667   0.0601407   0.0000000), wk =   0.0008681
        k(  227) = (   0.1041667   0.0601407   0.0000000), wk =   0.0008681
        k(  228) = (  -0.1250000   0.0721688   0.0000000), wk =   0.0008681
        k(  229) = (   0.1250000   0.0721688   0.0000000), wk =   0.0008681
        k(  230) = (  -0.1458333   0.0841969   0.0000000), wk =   0.0008681
        k(  231) = (   0.1458333   0.0841969   0.0000000), wk =   0.0008681
        k(  232) = (  -0.1666667   0.0962250   0.0000000), wk =   0.0008681
        k(  233) = (   0.1666667   0.0962250   0.0000000), wk =   0.0008681
        k(  234) = (  -0.1875000   0.1082532   0.0000000), wk =   0.0008681
        k(  235) = (   0.1875000   0.1082532   0.0000000), wk =   0.0008681
        k(  236) = (  -0.2083333   0.1202813   0.0000000), wk =   0.0008681
        k(  237) = (   0.2083333   0.1202813   0.0000000), wk =   0.0008681
        k(  238) = (  -0.2291667   0.1323094   0.0000000), wk =   0.0008681
        k(  239) = (   0.2291667   0.1323094   0.0000000), wk =   0.0008681
        k(  240) = (  -0.2500000   0.1443376   0.0000000), wk =   0.0008681
        k(  241) = (   0.2500000   0.1443376   0.0000000), wk =   0.0008681
        k(  242) = (  -0.2708333   0.1563657   0.0000000), wk =   0.0008681
        k(  243) = (   0.2708333   0.1563657   0.0000000), wk =   0.0008681
        k(  244) = (  -0.2916667   0.1683938   0.0000000), wk =   0.0008681
        k(  245) = (   0.2916667   0.1683938   0.0000000), wk =   0.0008681
        k(  246) = (  -0.3125000   0.1804220   0.0000000), wk =   0.0008681
        k(  247) = (   0.3125000   0.1804220   0.0000000), wk =   0.0008681
        k(  248) = (  -0.3333333   0.1924501   0.0000000), wk =   0.0008681
        k(  249) = (   0.3333333   0.1924501   0.0000000), wk =   0.0008681
        k(  250) = (  -0.3541667   0.2044782   0.0000000), wk =   0.0008681
        k(  251) = (   0.3541667   0.2044782   0.0000000), wk =   0.0008681
        k(  252) = (  -0.3750000   0.2165064   0.0000000), wk =   0.0008681
        k(  253) = (   0.3750000   0.2165064   0.0000000), wk =   0.0008681
        k(  254) = (  -0.3958333   0.2285345   0.0000000), wk =   0.0008681
        k(  255) = (   0.3958333   0.2285345   0.0000000), wk =   0.0008681
        k(  256) = (  -0.4166667   0.2405626   0.0000000), wk =   0.0008681
        k(  257) = (   0.4166667   0.2405626   0.0000000), wk =   0.0008681
        k(  258) = (  -0.4375000   0.2525907   0.0000000), wk =   0.0008681
        k(  259) = (   0.4375000   0.2525907   0.0000000), wk =   0.0008681
        k(  260) = (  -0.4583333   0.2646189   0.0000000), wk =   0.0008681
        k(  261) = (   0.4583333   0.2646189   0.0000000), wk =   0.0008681
        k(  262) = (  -0.4791667   0.2766470   0.0000000), wk =   0.0008681
        k(  263) = (   0.4791667   0.2766470   0.0000000), wk =   0.0008681
        k(  264) = (   0.5000000  -0.2886751   0.0000000), wk =   0.0004340
        k(  265) = (  -0.5000000  -0.2886751   0.0000000), wk =   0.0004340
        k(  266) = (  -0.0208333   0.0360844   0.0000000), wk =   0.0008681
        k(  267) = (   0.0416667  -0.0000000   0.0000000), wk =   0.0008681
        k(  268) = (  -0.0208333   0.0601407   0.0000000), wk =   0.0008681
        k(  269) = (  -0.0416667   0.0481125   0.0000000), wk =   0.0008681
        k(  270) = (   0.0625000   0.0120281   0.0000000), wk =   0.0008681
        k(  271) = (  -0.0416667  -0.0481125   0.0000000), wk =   0.0008681
        k(  272) = (   0.0625000  -0.0120281   0.0000000), wk =   0.0008681
        k(  273) = (  -0.0208333   0.0841969   0.0000000), wk =   0.0008681
        k(  274) = (  -0.0625000   0.0601407   0.0000000), wk =   0.0008681
        k(  275) = (   0.0833333   0.0240563   0.0000000), wk =   0.0008681
        k(  276) = (  -0.0625000  -0.0601407   0.0000000), wk =   0.0008681
        k(  277) = (   0.0833333  -0.0240563   0.0000000), wk =   0.0008681
        k(  278) = (  -0.0208333   0.1082532   0.0000000), wk =   0.0008681
        k(  279) = (  -0.0833333   0.0721688   0.0000000), wk =   0.0008681
        k(  280) = (   0.1041667   0.0360844   0.0000000), wk =   0.0008681
        k(  281) = (  -0.0833333  -0.0721688   0.0000000), wk =   0.0008681
        k(  282) = (   0.1041667  -0.0360844   0.0000000), wk =   0.0008681
        k(  283) = (  -0.0208333   0.1323094   0.0000000), wk =   0.0008681
        k(  284) = (  -0.1041667   0.0841969   0.0000000), wk =   0.0008681
        k(  285) = (   0.1250000   0.0481125   0.0000000), wk =   0.0008681
        k(  286) = (  -0.1041667  -0.0841969   0.0000000), wk =   0.0008681
        k(  287) = (   0.1250000  -0.0481125   0.0000000), wk =   0.0008681
        k(  288) = (  -0.0208333   0.1563657   0.0000000), wk =   0.0008681
        k(  289) = (  -0.1250000   0.0962250   0.0000000), wk =   0.0008681
        k(  290) = (   0.1458333   0.0601407   0.0000000), wk =   0.0008681
        k(  291) = (  -0.1250000  -0.0962250   0.0000000), wk =   0.0008681
        k(  292) = (   0.1458333  -0.0601407   0.0000000), wk =   0.0008681
        k(  293) = (  -0.0208333   0.1804220   0.0000000), wk =   0.0008681
        k(  294) = (  -0.1458333   0.1082532   0.0000000), wk =   0.0008681
        k(  295) = (   0.1666667   0.0721688   0.0000000), wk =   0.0008681
        k(  296) = (  -0.1458333  -0.1082532   0.0000000), wk =   0.0008681
        k(  297) = (   0.1666667  -0.0721688   0.0000000), wk =   0.0008681
        k(  298) = (  -0.0208333   0.2044782   0.0000000), wk =   0.0008681
        k(  299) = (  -0.1666667   0.1202813   0.0000000), wk =   0.0008681
        k(  300) = (   0.1875000   0.0841969   0.0000000), wk =   0.0008681
        k(  301) = (  -0.1666667  -0.1202813   0.0000000), wk =   0.0008681
        k(  302) = (   0.1875000  -0.0841969   0.0000000), wk =   0.0008681
        k(  303) = (  -0.0208333   0.2285345   0.0000000), wk =   0.0008681
        k(  304) = (  -0.1875000   0.1323094   0.0000000), wk =   0.0008681
        k(  305) = (   0.2083333   0.0962250   0.0000000), wk =   0.0008681
        k(  306) = (  -0.1875000  -0.1323094   0.0000000), wk =   0.0008681
        k(  307) = (   0.2083333  -0.0962250   0.0000000), wk =   0.0008681
        k(  308) = (  -0.0208333   0.2525907   0.0000000), wk =   0.0008681
        k(  309) = (  -0.2083333   0.1443376   0.0000000), wk =   0.0008681
        k(  310) = (   0.2291667   0.1082532   0.0000000), wk =   0.0008681
        k(  311) = (  -0.2083333  -0.1443376   0.0000000), wk =   0.0008681
        k(  312) = (   0.2291667  -0.1082532   0.0000000), wk =   0.0008681
        k(  313) = (  -0.0208333   0.2766470   0.0000000), wk =   0.0008681
        k(  314) = (  -0.2291667   0.1563657   0.0000000), wk =   0.0008681
        k(  315) = (   0.2500000   0.1202813   0.0000000), wk =   0.0008681
        k(  316) = (  -0.2291667  -0.1563657   0.0000000), wk =   0.0008681
        k(  317) = (   0.2500000  -0.1202813   0.0000000), wk =   0.0008681
        k(  318) = (  -0.0208333   0.3007033   0.0000000), wk =   0.0008681
        k(  319) = (  -0.2500000   0.1683938   0.0000000), wk =   0.0008681
        k(  320) = (   0.2708333   0.1323094   0.0000000), wk =   0.0008681
        k(  321) = (  -0.2500000  -0.1683938   0.0000000), wk =   0.0008681
        k(  322) = (   0.2708333  -0.1323094   0.0000000), wk =   0.0008681
        k(  323) = (  -0.0208333   0.3247595   0.0000000), wk =   0.0008681
        k(  324) = (  -0.2708333   0.1804220   0.0000000), wk =   0.0008681
        k(  325) = (   0.2916667   0.1443376   0.0000000), wk =   0.0008681
        k(  326) = (  -0.2708333  -0.1804220   0.0000000), wk =   0.0008681
        k(  327) = (   0.2916667  -0.1443376   0.0000000), wk =   0.0008681
        k(  328) = (  -0.0208333   0.3488158   0.0000000), wk =   0.0008681
        k(  329) = (  -0.2916667   0.1924501   0.0000000), wk =   0.0008681
        k(  330) = (   0.3125000   0.1563657   0.0000000), wk =   0.0008681
        k(  331) = (  -0.2916667  -0.1924501   0.0000000), wk =   0.0008681
        k(  332) = (   0.3125000  -0.1563657   0.0000000), wk =   0.0008681
        k(  333) = (  -0.0208333   0.3728720   0.0000000), wk =   0.0008681
        k(  334) = (  -0.3125000   0.2044782   0.0000000), wk =   0.0008681
        k(  335) = (   0.3333333   0.1683938   0.0000000), wk =   0.0008681
        k(  336) = (  -0.3125000  -0.2044782   0.0000000), wk =   0.0008681
        k(  337) = (   0.3333333  -0.1683938   0.0000000), wk =   0.0008681
        k(  338) = (  -0.0208333   0.3969283   0.0000000), wk =   0.0008681
        k(  339) = (  -0.3333333   0.2165064   0.0000000), wk =   0.0008681
        k(  340) = (   0.3541667   0.1804220   0.0000000), wk =   0.0008681
        k(  341) = (  -0.3333333  -0.2165064   0.0000000), wk =   0.0008681
        k(  342) = (   0.3541667  -0.1804220   0.0000000), wk =   0.0008681
        k(  343) = (  -0.0208333   0.4209846   0.0000000), wk =   0.0008681
        k(  344) = (  -0.3541667   0.2285345   0.0000000), wk =   0.0008681
        k(  345) = (   0.3750000   0.1924501   0.0000000), wk =   0.0008681
        k(  346) = (  -0.3541667  -0.2285345   0.0000000), wk =   0.0008681
        k(  347) = (   0.3750000  -0.1924501   0.0000000), wk =   0.0008681
        k(  348) = (  -0.0208333   0.4450408   0.0000000), wk =   0.0008681
        k(  349) = (  -0.3750000   0.2405626   0.0000000), wk =   0.0008681
        k(  350) = (   0.3958333   0.2044782   0.0000000), wk =   0.0008681
        k(  351) = (  -0.3750000  -0.2405626   0.0000000), wk =   0.0008681
        k(  352) = (   0.3958333  -0.2044782   0.0000000), wk =   0.0008681
        k(  353) = (  -0.0208333   0.4690971   0.0000000), wk =   0.0008681
        k(  354) = (  -0.3958333   0.2525907   0.0000000), wk =   0.0008681
        k(  355) = (   0.4166667   0.2165064   0.0000000), wk =   0.0008681
        k(  356) = (  -0.3958333  -0.2525907   0.0000000), wk =   0.0008681
        k(  357) = (   0.4166667  -0.2165064   0.0000000), wk =   0.0008681
        k(  358) = (  -0.0208333   0.4931534   0.0000000), wk =   0.0008681
        k(  359) = (  -0.4166667   0.2646189   0.0000000), wk =   0.0008681
        k(  360) = (   0.4375000   0.2285345   0.0000000), wk =   0.0008681
        k(  361) = (  -0.4166667  -0.2646189   0.0000000), wk =   0.0008681
        k(  362) = (   0.4375000  -0.2285345   0.0000000), wk =   0.0008681
        k(  363) = (  -0.0208333   0.5172096   0.0000000), wk =   0.0008681
        k(  364) = (  -0.4375000   0.2766470   0.0000000), wk =   0.0008681
        k(  365) = (   0.4583333   0.2405626   0.0000000), wk =   0.0008681
        k(  366) = (  -0.4375000  -0.2766470   0.0000000), wk =   0.0008681
        k(  367) = (   0.4583333  -0.2405626   0.0000000), wk =   0.0008681
        k(  368) = (  -0.0208333   0.5412659   0.0000000), wk =   0.0008681
        k(  369) = (  -0.4583333   0.2886751   0.0000000), wk =   0.0008681
        k(  370) = (   0.4791667   0.2525907   0.0000000), wk =   0.0008681
        k(  371) = (  -0.4583333  -0.2886751   0.0000000), wk =   0.0008681
        k(  372) = (   0.4791667  -0.2525907   0.0000000), wk =   0.0008681
        k(  373) = (  -0.0208333   0.5653221   0.0000000), wk =   0.0008681
        k(  374) = (  -0.4791667   0.3007033   0.0000000), wk =   0.0008681
        k(  375) = (   0.5000000   0.2646189   0.0000000), wk =   0.0008681
        k(  376) = (  -0.4791667  -0.3007033   0.0000000), wk =   0.0008681
        k(  377) = (   0.5000000  -0.2646189   0.0000000), wk =   0.0008681
        k(  378) = (  -0.0416667   0.0721688   0.0000000), wk =   0.0008681
        k(  379) = (   0.0833333  -0.0000000   0.0000000), wk =   0.0008681
        k(  380) = (  -0.0416667   0.0962250   0.0000000), wk =   0.0008681
        k(  381) = (  -0.0625000   0.0841969   0.0000000), wk =   0.0008681
        k(  382) = (   0.1041667   0.0120281   0.0000000), wk =   0.0008681
        k(  383) = (  -0.0625000  -0.0841969   0.0000000), wk =   0.0008681
        k(  384) = (   0.1041667  -0.0120281   0.0000000), wk =   0.0008681
        k(  385) = (  -0.0416667   0.1202813   0.0000000), wk =   0.0008681
        k(  386) = (  -0.0833333   0.0962250   0.0000000), wk =   0.0008681
        k(  387) = (   0.1250000   0.0240563   0.0000000), wk =   0.0008681
        k(  388) = (  -0.0833333  -0.0962250   0.0000000), wk =   0.0008681
        k(  389) = (   0.1250000  -0.0240563   0.0000000), wk =   0.0008681
        k(  390) = (  -0.0416667   0.1443376   0.0000000), wk =   0.0008681
        k(  391) = (  -0.1041667   0.1082532   0.0000000), wk =   0.0008681
        k(  392) = (   0.1458333   0.0360844   0.0000000), wk =   0.0008681
        k(  393) = (  -0.1041667  -0.1082532   0.0000000), wk =   0.0008681
        k(  394) = (   0.1458333  -0.0360844   0.0000000), wk =   0.0008681
        k(  395) = (  -0.0416667   0.1683938   0.0000000), wk =   0.0008681
        k(  396) = (  -0.1250000   0.1202813   0.0000000), wk =   0.0008681
        k(  397) = (   0.1666667   0.0481125   0.0000000), wk =   0.0008681
        k(  398) = (  -0.1250000  -0.1202813   0.0000000), wk =   0.0008681
        k(  399) = (   0.1666667  -0.0481125   0.0000000), wk =   0.0008681
        k(  400) = (  -0.0416667   0.1924501   0.0000000), wk =   0.0008681
        k(  401) = (  -0.1458333   0.1323094   0.0000000), wk =   0.0008681
        k(  402) = (   0.1875000   0.0601407   0.0000000), wk =   0.0008681
        k(  403) = (  -0.1458333  -0.1323094   0.0000000), wk =   0.0008681
        k(  404) = (   0.1875000  -0.0601407   0.0000000), wk =   0.0008681
        k(  405) = (  -0.0416667   0.2165064   0.0000000), wk =   0.0008681
        k(  406) = (  -0.1666667   0.1443376   0.0000000), wk =   0.0008681
        k(  407) = (   0.2083333   0.0721688   0.0000000), wk =   0.0008681
        k(  408) = (  -0.1666667  -0.1443376   0.0000000), wk =   0.0008681
        k(  409) = (   0.2083333  -0.0721688   0.0000000), wk =   0.0008681
        k(  410) = (  -0.0416667   0.2405626   0.0000000), wk =   0.0008681
        k(  411) = (  -0.1875000   0.1563657   0.0000000), wk =   0.0008681
        k(  412) = (   0.2291667   0.0841969   0.0000000), wk =   0.0008681
        k(  413) = (  -0.1875000  -0.1563657   0.0000000), wk =   0.0008681
        k(  414) = (   0.2291667  -0.0841969   0.0000000), wk =   0.0008681
        k(  415) = (  -0.0416667   0.2646189   0.0000000), wk =   0.0008681
        k(  416) = (  -0.2083333   0.1683938   0.0000000), wk =   0.0008681
        k(  417) = (   0.2500000   0.0962250   0.0000000), wk =   0.0008681
        k(  418) = (  -0.2083333  -0.1683938   0.0000000), wk =   0.0008681
        k(  419) = (   0.2500000  -0.0962250   0.0000000), wk =   0.0008681
        k(  420) = (  -0.0416667   0.2886751   0.0000000), wk =   0.0008681
        k(  421) = (  -0.2291667   0.1804220   0.0000000), wk =   0.0008681
        k(  422) = (   0.2708333   0.1082532   0.0000000), wk =   0.0008681
        k(  423) = (  -0.2291667  -0.1804220   0.0000000), wk =   0.0008681
        k(  424) = (   0.2708333  -0.1082532   0.0000000), wk =   0.0008681
        k(  425) = (  -0.0416667   0.3127314   0.0000000), wk =   0.0008681
        k(  426) = (  -0.2500000   0.1924501   0.0000000), wk =   0.0008681
        k(  427) = (   0.2916667   0.1202813   0.0000000), wk =   0.0008681
        k(  428) = (  -0.2500000  -0.1924501   0.0000000), wk =   0.0008681
        k(  429) = (   0.2916667  -0.1202813   0.0000000), wk =   0.0008681
        k(  430) = (  -0.0416667   0.3367877   0.0000000), wk =   0.0008681
        k(  431) = (  -0.2708333   0.2044782   0.0000000), wk =   0.0008681
        k(  432) = (   0.3125000   0.1323094   0.0000000), wk =   0.0008681
        k(  433) = (  -0.2708333  -0.2044782   0.0000000), wk =   0.0008681
        k(  434) = (   0.3125000  -0.1323094   0.0000000), wk =   0.0008681
        k(  435) = (  -0.0416667   0.3608439   0.0000000), wk =   0.0008681
        k(  436) = (  -0.2916667   0.2165064   0.0000000), wk =   0.0008681
        k(  437) = (   0.3333333   0.1443376   0.0000000), wk =   0.0008681
        k(  438) = (  -0.2916667  -0.2165064   0.0000000), wk =   0.0008681
        k(  439) = (   0.3333333  -0.1443376   0.0000000), wk =   0.0008681
        k(  440) = (  -0.0416667   0.3849002   0.0000000), wk =   0.0008681
        k(  441) = (  -0.3125000   0.2285345   0.0000000), wk =   0.0008681
        k(  442) = (   0.3541667   0.1563657   0.0000000), wk =   0.0008681
        k(  443) = (  -0.3125000  -0.2285345   0.0000000), wk =   0.0008681
        k(  444) = (   0.3541667  -0.1563657   0.0000000), wk =   0.0008681
        k(  445) = (  -0.0416667   0.4089564   0.0000000), wk =   0.0008681
        k(  446) = (  -0.3333333   0.2405626   0.0000000), wk =   0.0008681
        k(  447) = (   0.3750000   0.1683938   0.0000000), wk =   0.0008681
        k(  448) = (  -0.3333333  -0.2405626   0.0000000), wk =   0.0008681
        k(  449) = (   0.3750000  -0.1683938   0.0000000), wk =   0.0008681
        k(  450) = (  -0.0416667   0.4330127   0.0000000), wk =   0.0008681
        k(  451) = (  -0.3541667   0.2525907   0.0000000), wk =   0.0008681
        k(  452) = (   0.3958333   0.1804220   0.0000000), wk =   0.0008681
        k(  453) = (  -0.3541667  -0.2525907   0.0000000), wk =   0.0008681
        k(  454) = (   0.3958333  -0.1804220   0.0000000), wk =   0.0008681
        k(  455) = (  -0.0416667   0.4570690   0.0000000), wk =   0.0008681
        k(  456) = (  -0.3750000   0.2646189   0.0000000), wk =   0.0008681
        k(  457) = (   0.4166667   0.1924501   0.0000000), wk =   0.0008681
        k(  458) = (  -0.3750000  -0.2646189   0.0000000), wk =   0.0008681
        k(  459) = (   0.4166667  -0.1924501   0.0000000), wk =   0.0008681
        k(  460) = (  -0.0416667   0.4811252   0.0000000), wk =   0.0008681
        k(  461) = (  -0.3958333   0.2766470   0.0000000), wk =   0.0008681
        k(  462) = (   0.4375000   0.2044782   0.0000000), wk =   0.0008681
        k(  463) = (  -0.3958333  -0.2766470   0.0000000), wk =   0.0008681
        k(  464) = (   0.4375000  -0.2044782   0.0000000), wk =   0.0008681
        k(  465) = (  -0.0416667   0.5051815   0.0000000), wk =   0.0008681
        k(  466) = (  -0.4166667   0.2886751   0.0000000), wk =   0.0008681
        k(  467) = (   0.4583333   0.2165064   0.0000000), wk =   0.0008681
        k(  468) = (  -0.4166667  -0.2886751   0.0000000), wk =   0.0008681
        k(  469) = (   0.4583333  -0.2165064   0.0000000), wk =   0.0008681
        k(  470) = (  -0.0416667   0.5292377   0.0000000), wk =   0.0008681
        k(  471) = (  -0.4375000   0.3007033   0.0000000), wk =   0.0008681
        k(  472) = (   0.4791667   0.2285345   0.0000000), wk =   0.0008681
        k(  473) = (  -0.4375000  -0.3007033   0.0000000), wk =   0.0008681
        k(  474) = (   0.4791667  -0.2285345   0.0000000), wk =   0.0008681
        k(  475) = (  -0.0416667   0.5532940   0.0000000), wk =   0.0008681
        k(  476) = (  -0.4583333   0.3127314   0.0000000), wk =   0.0008681
        k(  477) = (   0.5000000   0.2405626   0.0000000), wk =   0.0008681
        k(  478) = (  -0.4583333  -0.3127314   0.0000000), wk =   0.0008681
        k(  479) = (   0.5000000  -0.2405626   0.0000000), wk =   0.0008681
        k(  480) = (  -0.4791667   0.3247595   0.0000000), wk =   0.0008681
        k(  481) = (   0.5208333   0.2525907   0.0000000), wk =   0.0008681
        k(  482) = (  -0.0625000   0.1082532   0.0000000), wk =   0.0008681
        k(  483) = (   0.1250000  -0.0000000   0.0000000), wk =   0.0008681
        k(  484) = (  -0.0625000   0.1323094   0.0000000), wk =   0.0008681
        k(  485) = (  -0.0833333   0.1202813   0.0000000), wk =   0.0008681
        k(  486) = (   0.1458333   0.0120281   0.0000000), wk =   0.0008681
        k(  487) = (  -0.0833333  -0.1202813   0.0000000), wk =   0.0008681
        k(  488) = (   0.1458333  -0.0120281   0.0000000), wk =   0.0008681
        k(  489) = (  -0.0625000   0.1563657   0.0000000), wk =   0.0008681
        k(  490) = (  -0.1041667   0.1323094   0.0000000), wk =   0.0008681
        k(  491) = (   0.1666667   0.0240563   0.0000000), wk =   0.0008681
        k(  492) = (  -0.1041667  -0.1323094   0.0000000), wk =   0.0008681
        k(  493) = (   0.1666667  -0.0240563   0.0000000), wk =   0.0008681
        k(  494) = (  -0.0625000   0.1804220   0.0000000), wk =   0.0008681
        k(  495) = (  -0.1250000   0.1443376   0.0000000), wk =   0.0008681
        k(  496) = (   0.1875000   0.0360844   0.0000000), wk =   0.0008681
        k(  497) = (  -0.1250000  -0.1443376   0.0000000), wk =   0.0008681
        k(  498) = (   0.1875000  -0.0360844   0.0000000), wk =   0.0008681
        k(  499) = (  -0.0625000   0.2044782   0.0000000), wk =   0.0008681
        k(  500) = (  -0.1458333   0.1563657   0.0000000), wk =   0.0008681
        k(  501) = (   0.2083333   0.0481125   0.0000000), wk =   0.0008681
        k(  502) = (  -0.1458333  -0.1563657   0.0000000), wk =   0.0008681
        k(  503) = (   0.2083333  -0.0481125   0.0000000), wk =   0.0008681
        k(  504) = (  -0.0625000   0.2285345   0.0000000), wk =   0.0008681
        k(  505) = (  -0.1666667   0.1683938   0.0000000), wk =   0.0008681
        k(  506) = (   0.2291667   0.0601407   0.0000000), wk =   0.0008681
        k(  507) = (  -0.1666667  -0.1683938   0.0000000), wk =   0.0008681
        k(  508) = (   0.2291667  -0.0601407   0.0000000), wk =   0.0008681
        k(  509) = (  -0.0625000   0.2525907   0.0000000), wk =   0.0008681
        k(  510) = (  -0.1875000   0.1804220   0.0000000), wk =   0.0008681
        k(  511) = (   0.2500000   0.0721688   0.0000000), wk =   0.0008681
        k(  512) = (  -0.1875000  -0.1804220   0.0000000), wk =   0.0008681
        k(  513) = (   0.2500000  -0.0721688   0.0000000), wk =   0.0008681
        k(  514) = (  -0.0625000   0.2766470   0.0000000), wk =   0.0008681
        k(  515) = (  -0.2083333   0.1924501   0.0000000), wk =   0.0008681
        k(  516) = (   0.2708333   0.0841969   0.0000000), wk =   0.0008681
        k(  517) = (  -0.2083333  -0.1924501   0.0000000), wk =   0.0008681
        k(  518) = (   0.2708333  -0.0841969   0.0000000), wk =   0.0008681
        k(  519) = (  -0.0625000   0.3007033   0.0000000), wk =   0.0008681
        k(  520) = (  -0.2291667   0.2044782   0.0000000), wk =   0.0008681
        k(  521) = (   0.2916667   0.0962250   0.0000000), wk =   0.0008681
        k(  522) = (  -0.2291667  -0.2044782   0.0000000), wk =   0.0008681
        k(  523) = (   0.2916667  -0.0962250   0.0000000), wk =   0.0008681
        k(  524) = (  -0.0625000   0.3247595   0.0000000), wk =   0.0008681
        k(  525) = (  -0.2500000   0.2165064   0.0000000), wk =   0.0008681
        k(  526) = (   0.3125000   0.1082532   0.0000000), wk =   0.0008681
        k(  527) = (  -0.2500000  -0.2165064   0.0000000), wk =   0.0008681
        k(  528) = (   0.3125000  -0.1082532   0.0000000), wk =   0.0008681
        k(  529) = (  -0.0625000   0.3488158   0.0000000), wk =   0.0008681
        k(  530) = (  -0.2708333   0.2285345   0.0000000), wk =   0.0008681
        k(  531) = (   0.3333333   0.1202813   0.0000000), wk =   0.0008681
        k(  532) = (  -0.2708333  -0.2285345   0.0000000), wk =   0.0008681
        k(  533) = (   0.3333333  -0.1202813   0.0000000), wk =   0.0008681
        k(  534) = (  -0.0625000   0.3728720   0.0000000), wk =   0.0008681
        k(  535) = (  -0.2916667   0.2405626   0.0000000), wk =   0.0008681
        k(  536) = (   0.3541667   0.1323094   0.0000000), wk =   0.0008681
        k(  537) = (  -0.2916667  -0.2405626   0.0000000), wk =   0.0008681
        k(  538) = (   0.3541667  -0.1323094   0.0000000), wk =   0.0008681
        k(  539) = (  -0.0625000   0.3969283   0.0000000), wk =   0.0008681
        k(  540) = (  -0.3125000   0.2525907   0.0000000), wk =   0.0008681
        k(  541) = (   0.3750000   0.1443376   0.0000000), wk =   0.0008681
        k(  542) = (  -0.3125000  -0.2525907   0.0000000), wk =   0.0008681
        k(  543) = (   0.3750000  -0.1443376   0.0000000), wk =   0.0008681
        k(  544) = (  -0.0625000   0.4209846   0.0000000), wk =   0.0008681
        k(  545) = (  -0.3333333   0.2646189   0.0000000), wk =   0.0008681
        k(  546) = (   0.3958333   0.1563657   0.0000000), wk =   0.0008681
        k(  547) = (  -0.3333333  -0.2646189   0.0000000), wk =   0.0008681
        k(  548) = (   0.3958333  -0.1563657   0.0000000), wk =   0.0008681
        k(  549) = (  -0.0625000   0.4450408   0.0000000), wk =   0.0008681
        k(  550) = (  -0.3541667   0.2766470   0.0000000), wk =   0.0008681
        k(  551) = (   0.4166667   0.1683938   0.0000000), wk =   0.0008681
        k(  552) = (  -0.3541667  -0.2766470   0.0000000), wk =   0.0008681
        k(  553) = (   0.4166667  -0.1683938   0.0000000), wk =   0.0008681
        k(  554) = (  -0.0625000   0.4690971   0.0000000), wk =   0.0008681
        k(  555) = (  -0.3750000   0.2886751   0.0000000), wk =   0.0008681
        k(  556) = (   0.4375000   0.1804220   0.0000000), wk =   0.0008681
        k(  557) = (  -0.3750000  -0.2886751   0.0000000), wk =   0.0008681
        k(  558) = (   0.4375000  -0.1804220   0.0000000), wk =   0.0008681
        k(  559) = (  -0.0625000   0.4931534   0.0000000), wk =   0.0008681
        k(  560) = (  -0.3958333   0.3007033   0.0000000), wk =   0.0008681
        k(  561) = (   0.4583333   0.1924501   0.0000000), wk =   0.0008681
        k(  562) = (  -0.3958333  -0.3007033   0.0000000), wk =   0.0008681
        k(  563) = (   0.4583333  -0.1924501   0.0000000), wk =   0.0008681
        k(  564) = (  -0.0625000   0.5172096   0.0000000), wk =   0.0008681
        k(  565) = (  -0.4166667   0.3127314   0.0000000), wk =   0.0008681
        k(  566) = (   0.4791667   0.2044782   0.0000000), wk =   0.0008681
        k(  567) = (  -0.4166667  -0.3127314   0.0000000), wk =   0.0008681
        k(  568) = (   0.4791667  -0.2044782   0.0000000), wk =   0.0008681
        k(  569) = (  -0.0625000   0.5412659   0.0000000), wk =   0.0008681
        k(  570) = (  -0.4375000   0.3247595   0.0000000), wk =   0.0008681
        k(  571) = (   0.5000000   0.2165064   0.0000000), wk =   0.0008681
        k(  572) = (  -0.4375000  -0.3247595   0.0000000), wk =   0.0008681
        k(  573) = (   0.5000000  -0.2165064   0.0000000), wk =   0.0008681
        k(  574) = (  -0.0625000   0.5653221   0.0000000), wk =   0.0008681
        k(  575) = (  -0.4583333   0.3367877   0.0000000), wk =   0.0008681
        k(  576) = (   0.5208333   0.2285345   0.0000000), wk =   0.0008681
        k(  577) = (  -0.4583333  -0.3367877   0.0000000), wk =   0.0008681
        k(  578) = (   0.5208333  -0.2285345   0.0000000), wk =   0.0008681
        k(  579) = (  -0.0833333   0.1443376   0.0000000), wk =   0.0008681
        k(  580) = (   0.1666667  -0.0000000   0.0000000), wk =   0.0008681
        k(  581) = (  -0.0833333   0.1683938   0.0000000), wk =   0.0008681
        k(  582) = (  -0.1041667   0.1563657   0.0000000), wk =   0.0008681
        k(  583) = (   0.1875000   0.0120281   0.0000000), wk =   0.0008681
        k(  584) = (  -0.1041667  -0.1563657   0.0000000), wk =   0.0008681
        k(  585) = (   0.1875000  -0.0120281   0.0000000), wk =   0.0008681
        k(  586) = (  -0.0833333   0.1924501   0.0000000), wk =   0.0008681
        k(  587) = (  -0.1250000   0.1683938   0.0000000), wk =   0.0008681
        k(  588) = (   0.2083333   0.0240563   0.0000000), wk =   0.0008681
        k(  589) = (  -0.1250000  -0.1683938   0.0000000), wk =   0.0008681
        k(  590) = (   0.2083333  -0.0240563   0.0000000), wk =   0.0008681
        k(  591) = (  -0.0833333   0.2165064   0.0000000), wk =   0.0008681
        k(  592) = (  -0.1458333   0.1804220   0.0000000), wk =   0.0008681
        k(  593) = (   0.2291667   0.0360844   0.0000000), wk =   0.0008681
        k(  594) = (  -0.1458333  -0.1804220   0.0000000), wk =   0.0008681
        k(  595) = (   0.2291667  -0.0360844   0.0000000), wk =   0.0008681
        k(  596) = (  -0.0833333   0.2405626   0.0000000), wk =   0.0008681
        k(  597) = (  -0.1666667   0.1924501   0.0000000), wk =   0.0008681
        k(  598) = (   0.2500000   0.0481125   0.0000000), wk =   0.0008681
        k(  599) = (  -0.1666667  -0.1924501   0.0000000), wk =   0.0008681
        k(  600) = (   0.2500000  -0.0481125   0.0000000), wk =   0.0008681
        k(  601) = (  -0.0833333   0.2646189   0.0000000), wk =   0.0008681
        k(  602) = (  -0.1875000   0.2044782   0.0000000), wk =   0.0008681
        k(  603) = (   0.2708333   0.0601407   0.0000000), wk =   0.0008681
        k(  604) = (  -0.1875000  -0.2044782   0.0000000), wk =   0.0008681
        k(  605) = (   0.2708333  -0.0601407   0.0000000), wk =   0.0008681
        k(  606) = (  -0.0833333   0.2886751   0.0000000), wk =   0.0008681
        k(  607) = (  -0.2083333   0.2165064   0.0000000), wk =   0.0008681
        k(  608) = (   0.2916667   0.0721688   0.0000000), wk =   0.0008681
        k(  609) = (  -0.2083333  -0.2165064   0.0000000), wk =   0.0008681
        k(  610) = (   0.2916667  -0.0721688   0.0000000), wk =   0.0008681
        k(  611) = (  -0.0833333   0.3127314   0.0000000), wk =   0.0008681
        k(  612) = (  -0.2291667   0.2285345   0.0000000), wk =   0.0008681
        k(  613) = (   0.3125000   0.0841969   0.0000000), wk =   0.0008681
        k(  614) = (  -0.2291667  -0.2285345   0.0000000), wk =   0.0008681
        k(  615) = (   0.3125000  -0.0841969   0.0000000), wk =   0.0008681
        k(  616) = (  -0.0833333   0.3367877   0.0000000), wk =   0.0008681
        k(  617) = (  -0.2500000   0.2405626   0.0000000), wk =   0.0008681
        k(  618) = (   0.3333333   0.0962250   0.0000000), wk =   0.0008681
        k(  619) = (  -0.2500000  -0.2405626   0.0000000), wk =   0.0008681
        k(  620) = (   0.3333333  -0.0962250   0.0000000), wk =   0.0008681
        k(  621) = (  -0.0833333   0.3608439   0.0000000), wk =   0.0008681
        k(  622) = (  -0.2708333   0.2525907   0.0000000), wk =   0.0008681
        k(  623) = (   0.3541667   0.1082532   0.0000000), wk =   0.0008681
        k(  624) = (  -0.2708333  -0.2525907   0.0000000), wk =   0.0008681
        k(  625) = (   0.3541667  -0.1082532   0.0000000), wk =   0.0008681
        k(  626) = (  -0.0833333   0.3849002   0.0000000), wk =   0.0008681
        k(  627) = (  -0.2916667   0.2646189   0.0000000), wk =   0.0008681
        k(  628) = (   0.3750000   0.1202813   0.0000000), wk =   0.0008681
        k(  629) = (  -0.2916667  -0.2646189   0.0000000), wk =   0.0008681
        k(  630) = (   0.3750000  -0.1202813   0.0000000), wk =   0.0008681
        k(  631) = (  -0.0833333   0.4089564   0.0000000), wk =   0.0008681
        k(  632) = (  -0.3125000   0.2766470   0.0000000), wk =   0.0008681
        k(  633) = (   0.3958333   0.1323094   0.0000000), wk =   0.0008681
        k(  634) = (  -0.3125000  -0.2766470   0.0000000), wk =   0.0008681
        k(  635) = (   0.3958333  -0.1323094   0.0000000), wk =   0.0008681
        k(  636) = (  -0.0833333   0.4330127   0.0000000), wk =   0.0008681
        k(  637) = (  -0.3333333   0.2886751   0.0000000), wk =   0.0008681
        k(  638) = (   0.4166667   0.1443376   0.0000000), wk =   0.0008681
        k(  639) = (  -0.3333333  -0.2886751   0.0000000), wk =   0.0008681
        k(  640) = (   0.4166667  -0.1443376   0.0000000), wk =   0.0008681
        k(  641) = (  -0.0833333   0.4570690   0.0000000), wk =   0.0008681
        k(  642) = (  -0.3541667   0.3007033   0.0000000), wk =   0.0008681
        k(  643) = (   0.4375000   0.1563657   0.0000000), wk =   0.0008681
        k(  644) = (  -0.3541667  -0.3007033   0.0000000), wk =   0.0008681
        k(  645) = (   0.4375000  -0.1563657   0.0000000), wk =   0.0008681
        k(  646) = (  -0.0833333   0.4811252   0.0000000), wk =   0.0008681
        k(  647) = (  -0.3750000   0.3127314   0.0000000), wk =   0.0008681
        k(  648) = (   0.4583333   0.1683938   0.0000000), wk =   0.0008681
        k(  649) = (  -0.3750000  -0.3127314   0.0000000), wk =   0.0008681
        k(  650) = (   0.4583333  -0.1683938   0.0000000), wk =   0.0008681
        k(  651) = (  -0.0833333   0.5051815   0.0000000), wk =   0.0008681
        k(  652) = (  -0.3958333   0.3247595   0.0000000), wk =   0.0008681
        k(  653) = (   0.4791667   0.1804220   0.0000000), wk =   0.0008681
        k(  654) = (  -0.3958333  -0.3247595   0.0000000), wk =   0.0008681
        k(  655) = (   0.4791667  -0.1804220   0.0000000), wk =   0.0008681
        k(  656) = (  -0.0833333   0.5292377   0.0000000), wk =   0.0008681
        k(  657) = (  -0.4166667   0.3367877   0.0000000), wk =   0.0008681
        k(  658) = (   0.5000000   0.1924501   0.0000000), wk =   0.0008681
        k(  659) = (  -0.4166667  -0.3367877   0.0000000), wk =   0.0008681
        k(  660) = (   0.5000000  -0.1924501   0.0000000), wk =   0.0008681
        k(  661) = (  -0.0833333   0.5532940   0.0000000), wk =   0.0008681
        k(  662) = (  -0.4375000   0.3488158   0.0000000), wk =   0.0008681
        k(  663) = (   0.5208333   0.2044782   0.0000000), wk =   0.0008681
        k(  664) = (  -0.4375000  -0.3488158   0.0000000), wk =   0.0008681
        k(  665) = (   0.5208333  -0.2044782   0.0000000), wk =   0.0008681
        k(  666) = (  -0.4583333   0.3608439   0.0000000), wk =   0.0008681
        k(  667) = (   0.5416667   0.2165064   0.0000000), wk =   0.0008681
        k(  668) = (  -0.1041667   0.1804220   0.0000000), wk =   0.0008681
        k(  669) = (   0.2083333  -0.0000000   0.0000000), wk =   0.0008681
        k(  670) = (  -0.1041667   0.2044782   0.0000000), wk =   0.0008681
        k(  671) = (  -0.1250000   0.1924501   0.0000000), wk =   0.0008681
        k(  672) = (   0.2291667   0.0120281   0.0000000), wk =   0.0008681
        k(  673) = (  -0.1250000  -0.1924501   0.0000000), wk =   0.0008681
        k(  674) = (   0.2291667  -0.0120281   0.0000000), wk =   0.0008681
        k(  675) = (  -0.1041667   0.2285345   0.0000000), wk =   0.0008681
        k(  676) = (  -0.1458333   0.2044782   0.0000000), wk =   0.0008681
        k(  677) = (   0.2500000   0.0240563   0.0000000), wk =   0.0008681
        k(  678) = (  -0.1458333  -0.2044782   0.0000000), wk =   0.0008681
        k(  679) = (   0.2500000  -0.0240563   0.0000000), wk =   0.0008681
        k(  680) = (  -0.1041667   0.2525907   0.0000000), wk =   0.0008681
        k(  681) = (  -0.1666667   0.2165064   0.0000000), wk =   0.0008681
        k(  682) = (   0.2708333   0.0360844   0.0000000), wk =   0.0008681
        k(  683) = (  -0.1666667  -0.2165064   0.0000000), wk =   0.0008681
        k(  684) = (   0.2708333  -0.0360844   0.0000000), wk =   0.0008681
        k(  685) = (  -0.1041667   0.2766470   0.0000000), wk =   0.0008681
        k(  686) = (  -0.1875000   0.2285345   0.0000000), wk =   0.0008681
        k(  687) = (   0.2916667   0.0481125   0.0000000), wk =   0.0008681
        k(  688) = (  -0.1875000  -0.2285345   0.0000000), wk =   0.0008681
        k(  689) = (   0.2916667  -0.0481125   0.0000000), wk =   0.0008681
        k(  690) = (  -0.1041667   0.3007033   0.0000000), wk =   0.0008681
        k(  691) = (  -0.2083333   0.2405626   0.0000000), wk =   0.0008681
        k(  692) = (   0.3125000   0.0601407   0.0000000), wk =   0.0008681
        k(  693) = (  -0.2083333  -0.2405626   0.0000000), wk =   0.0008681
        k(  694) = (   0.3125000  -0.0601407   0.0000000), wk =   0.0008681
        k(  695) = (  -0.1041667   0.3247595   0.0000000), wk =   0.0008681
        k(  696) = (  -0.2291667   0.2525907   0.0000000), wk =   0.0008681
        k(  697) = (   0.3333333   0.0721688   0.0000000), wk =   0.0008681
        k(  698) = (  -0.2291667  -0.2525907   0.0000000), wk =   0.0008681
        k(  699) = (   0.3333333  -0.0721688   0.0000000), wk =   0.0008681
        k(  700) = (  -0.1041667   0.3488158   0.0000000), wk =   0.0008681
        k(  701) = (  -0.2500000   0.2646189   0.0000000), wk =   0.0008681
        k(  702) = (   0.3541667   0.0841969   0.0000000), wk =   0.0008681
        k(  703) = (  -0.2500000  -0.2646189   0.0000000), wk =   0.0008681
        k(  704) = (   0.3541667  -0.0841969   0.0000000), wk =   0.0008681
        k(  705) = (  -0.1041667   0.3728720   0.0000000), wk =   0.0008681
        k(  706) = (  -0.2708333   0.2766470   0.0000000), wk =   0.0008681
        k(  707) = (   0.3750000   0.0962250   0.0000000), wk =   0.0008681
        k(  708) = (  -0.2708333  -0.2766470   0.0000000), wk =   0.0008681
        k(  709) = (   0.3750000  -0.0962250   0.0000000), wk =   0.0008681
        k(  710) = (  -0.1041667   0.3969283   0.0000000), wk =   0.0008681
        k(  711) = (  -0.2916667   0.2886751   0.0000000), wk =   0.0008681
        k(  712) = (   0.3958333   0.1082532   0.0000000), wk =   0.0008681
        k(  713) = (  -0.2916667  -0.2886751   0.0000000), wk =   0.0008681
        k(  714) = (   0.3958333  -0.1082532   0.0000000), wk =   0.0008681
        k(  715) = (  -0.1041667   0.4209846   0.0000000), wk =   0.0008681
        k(  716) = (  -0.3125000   0.3007033   0.0000000), wk =   0.0008681
        k(  717) = (   0.4166667   0.1202813   0.0000000), wk =   0.0008681
        k(  718) = (  -0.3125000  -0.3007033   0.0000000), wk =   0.0008681
        k(  719) = (   0.4166667  -0.1202813   0.0000000), wk =   0.0008681
        k(  720) = (  -0.1041667   0.4450408   0.0000000), wk =   0.0008681
        k(  721) = (  -0.3333333   0.3127314   0.0000000), wk =   0.0008681
        k(  722) = (   0.4375000   0.1323094   0.0000000), wk =   0.0008681
        k(  723) = (  -0.3333333  -0.3127314   0.0000000), wk =   0.0008681
        k(  724) = (   0.4375000  -0.1323094   0.0000000), wk =   0.0008681
        k(  725) = (  -0.1041667   0.4690971   0.0000000), wk =   0.0008681
        k(  726) = (  -0.3541667   0.3247595   0.0000000), wk =   0.0008681
        k(  727) = (   0.4583333   0.1443376   0.0000000), wk =   0.0008681
        k(  728) = (  -0.3541667  -0.3247595   0.0000000), wk =   0.0008681
        k(  729) = (   0.4583333  -0.1443376   0.0000000), wk =   0.0008681
        k(  730) = (  -0.1041667   0.4931534   0.0000000), wk =   0.0008681
        k(  731) = (  -0.3750000   0.3367877   0.0000000), wk =   0.0008681
        k(  732) = (   0.4791667   0.1563657   0.0000000), wk =   0.0008681
        k(  733) = (  -0.3750000  -0.3367877   0.0000000), wk =   0.0008681
        k(  734) = (   0.4791667  -0.1563657   0.0000000), wk =   0.0008681
        k(  735) = (  -0.1041667   0.5172096   0.0000000), wk =   0.0008681
        k(  736) = (  -0.3958333   0.3488158   0.0000000), wk =   0.0008681
        k(  737) = (   0.5000000   0.1683938   0.0000000), wk =   0.0008681
        k(  738) = (  -0.3958333  -0.3488158   0.0000000), wk =   0.0008681
        k(  739) = (   0.5000000  -0.1683938   0.0000000), wk =   0.0008681
        k(  740) = (  -0.1041667   0.5412659   0.0000000), wk =   0.0008681
        k(  741) = (  -0.4166667   0.3608439   0.0000000), wk =   0.0008681
        k(  742) = (   0.5208333   0.1804220   0.0000000), wk =   0.0008681
        k(  743) = (  -0.4166667  -0.3608439   0.0000000), wk =   0.0008681
        k(  744) = (   0.5208333  -0.1804220   0.0000000), wk =   0.0008681
        k(  745) = (  -0.1041667   0.5653221   0.0000000), wk =   0.0008681
        k(  746) = (  -0.4375000   0.3728720   0.0000000), wk =   0.0008681
        k(  747) = (   0.5416667   0.1924501   0.0000000), wk =   0.0008681
        k(  748) = (  -0.4375000  -0.3728720   0.0000000), wk =   0.0008681
        k(  749) = (   0.5416667  -0.1924501   0.0000000), wk =   0.0008681
        k(  750) = (  -0.1250000   0.2165064   0.0000000), wk =   0.0008681
        k(  751) = (   0.2500000  -0.0000000   0.0000000), wk =   0.0008681
        k(  752) = (  -0.1250000   0.2405626   0.0000000), wk =   0.0008681
        k(  753) = (  -0.1458333   0.2285345   0.0000000), wk =   0.0008681
        k(  754) = (   0.2708333   0.0120281   0.0000000), wk =   0.0008681
        k(  755) = (  -0.1458333  -0.2285345   0.0000000), wk =   0.0008681
        k(  756) = (   0.2708333  -0.0120281   0.0000000), wk =   0.0008681
        k(  757) = (  -0.1250000   0.2646189   0.0000000), wk =   0.0008681
        k(  758) = (  -0.1666667   0.2405626   0.0000000), wk =   0.0008681
        k(  759) = (   0.2916667   0.0240563   0.0000000), wk =   0.0008681
        k(  760) = (  -0.1666667  -0.2405626   0.0000000), wk =   0.0008681
        k(  761) = (   0.2916667  -0.0240563   0.0000000), wk =   0.0008681
        k(  762) = (  -0.1250000   0.2886751   0.0000000), wk =   0.0008681
        k(  763) = (  -0.1875000   0.2525907   0.0000000), wk =   0.0008681
        k(  764) = (   0.3125000   0.0360844   0.0000000), wk =   0.0008681
        k(  765) = (  -0.1875000  -0.2525907   0.0000000), wk =   0.0008681
        k(  766) = (   0.3125000  -0.0360844   0.0000000), wk =   0.0008681
        k(  767) = (  -0.1250000   0.3127314   0.0000000), wk =   0.0008681
        k(  768) = (  -0.2083333   0.2646189   0.0000000), wk =   0.0008681
        k(  769) = (   0.3333333   0.0481125   0.0000000), wk =   0.0008681
        k(  770) = (  -0.2083333  -0.2646189   0.0000000), wk =   0.0008681
        k(  771) = (   0.3333333  -0.0481125   0.0000000), wk =   0.0008681
        k(  772) = (  -0.1250000   0.3367877   0.0000000), wk =   0.0008681
        k(  773) = (  -0.2291667   0.2766470   0.0000000), wk =   0.0008681
        k(  774) = (   0.3541667   0.0601407   0.0000000), wk =   0.0008681
        k(  775) = (  -0.2291667  -0.2766470   0.0000000), wk =   0.0008681
        k(  776) = (   0.3541667  -0.0601407   0.0000000), wk =   0.0008681
        k(  777) = (  -0.1250000   0.3608439   0.0000000), wk =   0.0008681
        k(  778) = (  -0.2500000   0.2886751   0.0000000), wk =   0.0008681
        k(  779) = (   0.3750000   0.0721688   0.0000000), wk =   0.0008681
        k(  780) = (  -0.2500000  -0.2886751   0.0000000), wk =   0.0008681
        k(  781) = (   0.3750000  -0.0721688   0.0000000), wk =   0.0008681
        k(  782) = (  -0.1250000   0.3849002   0.0000000), wk =   0.0008681
        k(  783) = (  -0.2708333   0.3007033   0.0000000), wk =   0.0008681
        k(  784) = (   0.3958333   0.0841969   0.0000000), wk =   0.0008681
        k(  785) = (  -0.2708333  -0.3007033   0.0000000), wk =   0.0008681
        k(  786) = (   0.3958333  -0.0841969   0.0000000), wk =   0.0008681
        k(  787) = (  -0.1250000   0.4089564   0.0000000), wk =   0.0008681
        k(  788) = (  -0.2916667   0.3127314   0.0000000), wk =   0.0008681
        k(  789) = (   0.4166667   0.0962250   0.0000000), wk =   0.0008681
        k(  790) = (  -0.2916667  -0.3127314   0.0000000), wk =   0.0008681
        k(  791) = (   0.4166667  -0.0962250   0.0000000), wk =   0.0008681
        k(  792) = (  -0.1250000   0.4330127   0.0000000), wk =   0.0008681
        k(  793) = (  -0.3125000   0.3247595   0.0000000), wk =   0.0008681
        k(  794) = (   0.4375000   0.1082532   0.0000000), wk =   0.0008681
        k(  795) = (  -0.3125000  -0.3247595   0.0000000), wk =   0.0008681
        k(  796) = (   0.4375000  -0.1082532   0.0000000), wk =   0.0008681
        k(  797) = (  -0.1250000   0.4570690   0.0000000), wk =   0.0008681
        k(  798) = (  -0.3333333   0.3367877   0.0000000), wk =   0.0008681
        k(  799) = (   0.4583333   0.1202813   0.0000000), wk =   0.0008681
        k(  800) = (  -0.3333333  -0.3367877   0.0000000), wk =   0.0008681
        k(  801) = (   0.4583333  -0.1202813   0.0000000), wk =   0.0008681
        k(  802) = (  -0.1250000   0.4811252   0.0000000), wk =   0.0008681
        k(  803) = (  -0.3541667   0.3488158   0.0000000), wk =   0.0008681
        k(  804) = (   0.4791667   0.1323094   0.0000000), wk =   0.0008681
        k(  805) = (  -0.3541667  -0.3488158   0.0000000), wk =   0.0008681
        k(  806) = (   0.4791667  -0.1323094   0.0000000), wk =   0.0008681
        k(  807) = (  -0.1250000   0.5051815   0.0000000), wk =   0.0008681
        k(  808) = (  -0.3750000   0.3608439   0.0000000), wk =   0.0008681
        k(  809) = (   0.5000000   0.1443376   0.0000000), wk =   0.0008681
        k(  810) = (  -0.3750000  -0.3608439   0.0000000), wk =   0.0008681
        k(  811) = (   0.5000000  -0.1443376   0.0000000), wk =   0.0008681
        k(  812) = (  -0.1250000   0.5292377   0.0000000), wk =   0.0008681
        k(  813) = (  -0.3958333   0.3728720   0.0000000), wk =   0.0008681
        k(  814) = (   0.5208333   0.1563657   0.0000000), wk =   0.0008681
        k(  815) = (  -0.3958333  -0.3728720   0.0000000), wk =   0.0008681
        k(  816) = (   0.5208333  -0.1563657   0.0000000), wk =   0.0008681
        k(  817) = (  -0.1250000   0.5532940   0.0000000), wk =   0.0008681
        k(  818) = (  -0.4166667   0.3849002   0.0000000), wk =   0.0008681
        k(  819) = (   0.5416667   0.1683938   0.0000000), wk =   0.0008681
        k(  820) = (  -0.4166667  -0.3849002   0.0000000), wk =   0.0008681
        k(  821) = (   0.5416667  -0.1683938   0.0000000), wk =   0.0008681
        k(  822) = (  -0.4375000   0.3969283   0.0000000), wk =   0.0008681
        k(  823) = (   0.5625000   0.1804220   0.0000000), wk =   0.0008681
        k(  824) = (  -0.1458333   0.2525907   0.0000000), wk =   0.0008681
        k(  825) = (   0.2916667  -0.0000000   0.0000000), wk =   0.0008681
        k(  826) = (  -0.1458333   0.2766470   0.0000000), wk =   0.0008681
        k(  827) = (  -0.1666667   0.2646189   0.0000000), wk =   0.0008681
        k(  828) = (   0.3125000   0.0120281   0.0000000), wk =   0.0008681
        k(  829) = (  -0.1666667  -0.2646189   0.0000000), wk =   0.0008681
        k(  830) = (   0.3125000  -0.0120281   0.0000000), wk =   0.0008681
        k(  831) = (  -0.1458333   0.3007033   0.0000000), wk =   0.0008681
        k(  832) = (  -0.1875000   0.2766470   0.0000000), wk =   0.0008681
        k(  833) = (   0.3333333   0.0240563   0.0000000), wk =   0.0008681
        k(  834) = (  -0.1875000  -0.2766470   0.0000000), wk =   0.0008681
        k(  835) = (   0.3333333  -0.0240563   0.0000000), wk =   0.0008681
        k(  836) = (  -0.1458333   0.3247595   0.0000000), wk =   0.0008681
        k(  837) = (  -0.2083333   0.2886751   0.0000000), wk =   0.0008681
        k(  838) = (   0.3541667   0.0360844   0.0000000), wk =   0.0008681
        k(  839) = (  -0.2083333  -0.2886751   0.0000000), wk =   0.0008681
        k(  840) = (   0.3541667  -0.0360844   0.0000000), wk =   0.0008681
        k(  841) = (  -0.1458333   0.3488158   0.0000000), wk =   0.0008681
        k(  842) = (  -0.2291667   0.3007033   0.0000000), wk =   0.0008681
        k(  843) = (   0.3750000   0.0481125   0.0000000), wk =   0.0008681
        k(  844) = (  -0.2291667  -0.3007033   0.0000000), wk =   0.0008681
        k(  845) = (   0.3750000  -0.0481125   0.0000000), wk =   0.0008681
        k(  846) = (  -0.1458333   0.3728720   0.0000000), wk =   0.0008681
        k(  847) = (  -0.2500000   0.3127314   0.0000000), wk =   0.0008681
        k(  848) = (   0.3958333   0.0601407   0.0000000), wk =   0.0008681
        k(  849) = (  -0.2500000  -0.3127314   0.0000000), wk =   0.0008681
        k(  850) = (   0.3958333  -0.0601407   0.0000000), wk =   0.0008681
        k(  851) = (  -0.1458333   0.3969283   0.0000000), wk =   0.0008681
        k(  852) = (  -0.2708333   0.3247595   0.0000000), wk =   0.0008681
        k(  853) = (   0.4166667   0.0721688   0.0000000), wk =   0.0008681
        k(  854) = (  -0.2708333  -0.3247595   0.0000000), wk =   0.0008681
        k(  855) = (   0.4166667  -0.0721688   0.0000000), wk =   0.0008681
        k(  856) = (  -0.1458333   0.4209846   0.0000000), wk =   0.0008681
        k(  857) = (  -0.2916667   0.3367877   0.0000000), wk =   0.0008681
        k(  858) = (   0.4375000   0.0841969   0.0000000), wk =   0.0008681
        k(  859) = (  -0.2916667  -0.3367877   0.0000000), wk =   0.0008681
        k(  860) = (   0.4375000  -0.0841969   0.0000000), wk =   0.0008681
        k(  861) = (  -0.1458333   0.4450408   0.0000000), wk =   0.0008681
        k(  862) = (  -0.3125000   0.3488158   0.0000000), wk =   0.0008681
        k(  863) = (   0.4583333   0.0962250   0.0000000), wk =   0.0008681
        k(  864) = (  -0.3125000  -0.3488158   0.0000000), wk =   0.0008681
        k(  865) = (   0.4583333  -0.0962250   0.0000000), wk =   0.0008681
        k(  866) = (  -0.1458333   0.4690971   0.0000000), wk =   0.0008681
        k(  867) = (  -0.3333333   0.3608439   0.0000000), wk =   0.0008681
        k(  868) = (   0.4791667   0.1082532   0.0000000), wk =   0.0008681
        k(  869) = (  -0.3333333  -0.3608439   0.0000000), wk =   0.0008681
        k(  870) = (   0.4791667  -0.1082532   0.0000000), wk =   0.0008681
        k(  871) = (  -0.1458333   0.4931534   0.0000000), wk =   0.0008681
        k(  872) = (  -0.3541667   0.3728720   0.0000000), wk =   0.0008681
        k(  873) = (   0.5000000   0.1202813   0.0000000), wk =   0.0008681
        k(  874) = (  -0.3541667  -0.3728720   0.0000000), wk =   0.0008681
        k(  875) = (   0.5000000  -0.1202813   0.0000000), wk =   0.0008681
        k(  876) = (  -0.1458333   0.5172096   0.0000000), wk =   0.0008681
        k(  877) = (  -0.3750000   0.3849002   0.0000000), wk =   0.0008681
        k(  878) = (   0.5208333   0.1323094   0.0000000), wk =   0.0008681
        k(  879) = (  -0.3750000  -0.3849002   0.0000000), wk =   0.0008681
        k(  880) = (   0.5208333  -0.1323094   0.0000000), wk =   0.0008681
        k(  881) = (  -0.1458333   0.5412659   0.0000000), wk =   0.0008681
        k(  882) = (  -0.3958333   0.3969283   0.0000000), wk =   0.0008681
        k(  883) = (   0.5416667   0.1443376   0.0000000), wk =   0.0008681
        k(  884) = (  -0.3958333  -0.3969283   0.0000000), wk =   0.0008681
        k(  885) = (   0.5416667  -0.1443376   0.0000000), wk =   0.0008681
        k(  886) = (  -0.1458333   0.5653221   0.0000000), wk =   0.0008681
        k(  887) = (  -0.4166667   0.4089564   0.0000000), wk =   0.0008681
        k(  888) = (   0.5625000   0.1563657   0.0000000), wk =   0.0008681
        k(  889) = (  -0.4166667  -0.4089564   0.0000000), wk =   0.0008681
        k(  890) = (   0.5625000  -0.1563657   0.0000000), wk =   0.0008681
        k(  891) = (  -0.1666667   0.2886751   0.0000000), wk =   0.0008681
        k(  892) = (   0.3333333  -0.0000000   0.0000000), wk =   0.0008681
        k(  893) = (  -0.1666667   0.3127314   0.0000000), wk =   0.0008681
        k(  894) = (  -0.1875000   0.3007033   0.0000000), wk =   0.0008681
        k(  895) = (   0.3541667   0.0120281   0.0000000), wk =   0.0008681
        k(  896) = (  -0.1875000  -0.3007033   0.0000000), wk =   0.0008681
        k(  897) = (   0.3541667  -0.0120281   0.0000000), wk =   0.0008681
        k(  898) = (  -0.1666667   0.3367877   0.0000000), wk =   0.0008681
        k(  899) = (  -0.2083333   0.3127314   0.0000000), wk =   0.0008681
        k(  900) = (   0.3750000   0.0240563   0.0000000), wk =   0.0008681
        k(  901) = (  -0.2083333  -0.3127314   0.0000000), wk =   0.0008681
        k(  902) = (   0.3750000  -0.0240563   0.0000000), wk =   0.0008681
        k(  903) = (  -0.1666667   0.3608439   0.0000000), wk =   0.0008681
        k(  904) = (  -0.2291667   0.3247595   0.0000000), wk =   0.0008681
        k(  905) = (   0.3958333   0.0360844   0.0000000), wk =   0.0008681
        k(  906) = (  -0.2291667  -0.3247595   0.0000000), wk =   0.0008681
        k(  907) = (   0.3958333  -0.0360844   0.0000000), wk =   0.0008681
        k(  908) = (  -0.1666667   0.3849002   0.0000000), wk =   0.0008681
        k(  909) = (  -0.2500000   0.3367877   0.0000000), wk =   0.0008681
        k(  910) = (   0.4166667   0.0481125   0.0000000), wk =   0.0008681
        k(  911) = (  -0.2500000  -0.3367877   0.0000000), wk =   0.0008681
        k(  912) = (   0.4166667  -0.0481125   0.0000000), wk =   0.0008681
        k(  913) = (  -0.1666667   0.4089564   0.0000000), wk =   0.0008681
        k(  914) = (  -0.2708333   0.3488158   0.0000000), wk =   0.0008681
        k(  915) = (   0.4375000   0.0601407   0.0000000), wk =   0.0008681
        k(  916) = (  -0.2708333  -0.3488158   0.0000000), wk =   0.0008681
        k(  917) = (   0.4375000  -0.0601407   0.0000000), wk =   0.0008681
        k(  918) = (  -0.1666667   0.4330127   0.0000000), wk =   0.0008681
        k(  919) = (  -0.2916667   0.3608439   0.0000000), wk =   0.0008681
        k(  920) = (   0.4583333   0.0721688   0.0000000), wk =   0.0008681
        k(  921) = (  -0.2916667  -0.3608439   0.0000000), wk =   0.0008681
        k(  922) = (   0.4583333  -0.0721688   0.0000000), wk =   0.0008681
        k(  923) = (  -0.1666667   0.4570690   0.0000000), wk =   0.0008681
        k(  924) = (  -0.3125000   0.3728720   0.0000000), wk =   0.0008681
        k(  925) = (   0.4791667   0.0841969   0.0000000), wk =   0.0008681
        k(  926) = (  -0.3125000  -0.3728720   0.0000000), wk =   0.0008681
        k(  927) = (   0.4791667  -0.0841969   0.0000000), wk =   0.0008681
        k(  928) = (  -0.1666667   0.4811252   0.0000000), wk =   0.0008681
        k(  929) = (  -0.3333333   0.3849002   0.0000000), wk =   0.0008681
        k(  930) = (   0.5000000   0.0962250   0.0000000), wk =   0.0008681
        k(  931) = (  -0.3333333  -0.3849002   0.0000000), wk =   0.0008681
        k(  932) = (   0.5000000  -0.0962250   0.0000000), wk =   0.0008681
        k(  933) = (  -0.1666667   0.5051815   0.0000000), wk =   0.0008681
        k(  934) = (  -0.3541667   0.3969283   0.0000000), wk =   0.0008681
        k(  935) = (   0.5208333   0.1082532   0.0000000), wk =   0.0008681
        k(  936) = (  -0.3541667  -0.3969283   0.0000000), wk =   0.0008681
        k(  937) = (   0.5208333  -0.1082532   0.0000000), wk =   0.0008681
        k(  938) = (  -0.1666667   0.5292377   0.0000000), wk =   0.0008681
        k(  939) = (  -0.3750000   0.4089564   0.0000000), wk =   0.0008681
        k(  940) = (   0.5416667   0.1202813   0.0000000), wk =   0.0008681
        k(  941) = (  -0.3750000  -0.4089564   0.0000000), wk =   0.0008681
        k(  942) = (   0.5416667  -0.1202813   0.0000000), wk =   0.0008681
        k(  943) = (  -0.1666667   0.5532940   0.0000000), wk =   0.0008681
        k(  944) = (  -0.3958333   0.4209846   0.0000000), wk =   0.0008681
        k(  945) = (   0.5625000   0.1323094   0.0000000), wk =   0.0008681
        k(  946) = (  -0.3958333  -0.4209846   0.0000000), wk =   0.0008681
        k(  947) = (   0.5625000  -0.1323094   0.0000000), wk =   0.0008681
        k(  948) = (  -0.4166667   0.4330127   0.0000000), wk =   0.0008681
        k(  949) = (   0.5833333   0.1443376   0.0000000), wk =   0.0008681
        k(  950) = (  -0.1875000   0.3247595   0.0000000), wk =   0.0008681
        k(  951) = (   0.3750000  -0.0000000   0.0000000), wk =   0.0008681
        k(  952) = (  -0.1875000   0.3488158   0.0000000), wk =   0.0008681
        k(  953) = (  -0.2083333   0.3367877   0.0000000), wk =   0.0008681
        k(  954) = (   0.3958333   0.0120281   0.0000000), wk =   0.0008681
        k(  955) = (  -0.2083333  -0.3367877   0.0000000), wk =   0.0008681
        k(  956) = (   0.3958333  -0.0120281   0.0000000), wk =   0.0008681
        k(  957) = (  -0.1875000   0.3728720   0.0000000), wk =   0.0008681
        k(  958) = (  -0.2291667   0.3488158   0.0000000), wk =   0.0008681
        k(  959) = (   0.4166667   0.0240563   0.0000000), wk =   0.0008681
        k(  960) = (  -0.2291667  -0.3488158   0.0000000), wk =   0.0008681
        k(  961) = (   0.4166667  -0.0240563   0.0000000), wk =   0.0008681
        k(  962) = (  -0.1875000   0.3969283   0.0000000), wk =   0.0008681
        k(  963) = (  -0.2500000   0.3608439   0.0000000), wk =   0.0008681
        k(  964) = (   0.4375000   0.0360844   0.0000000), wk =   0.0008681
        k(  965) = (  -0.2500000  -0.3608439   0.0000000), wk =   0.0008681
        k(  966) = (   0.4375000  -0.0360844   0.0000000), wk =   0.0008681
        k(  967) = (  -0.1875000   0.4209846   0.0000000), wk =   0.0008681
        k(  968) = (  -0.2708333   0.3728720   0.0000000), wk =   0.0008681
        k(  969) = (   0.4583333   0.0481125   0.0000000), wk =   0.0008681
        k(  970) = (  -0.2708333  -0.3728720   0.0000000), wk =   0.0008681
        k(  971) = (   0.4583333  -0.0481125   0.0000000), wk =   0.0008681
        k(  972) = (  -0.1875000   0.4450408   0.0000000), wk =   0.0008681
        k(  973) = (  -0.2916667   0.3849002   0.0000000), wk =   0.0008681
        k(  974) = (   0.4791667   0.0601407   0.0000000), wk =   0.0008681
        k(  975) = (  -0.2916667  -0.3849002   0.0000000), wk =   0.0008681
        k(  976) = (   0.4791667  -0.0601407   0.0000000), wk =   0.0008681
        k(  977) = (  -0.1875000   0.4690971   0.0000000), wk =   0.0008681
        k(  978) = (  -0.3125000   0.3969283   0.0000000), wk =   0.0008681
        k(  979) = (   0.5000000   0.0721688   0.0000000), wk =   0.0008681
        k(  980) = (  -0.3125000  -0.3969283   0.0000000), wk =   0.0008681
        k(  981) = (   0.5000000  -0.0721688   0.0000000), wk =   0.0008681
        k(  982) = (  -0.1875000   0.4931534   0.0000000), wk =   0.0008681
        k(  983) = (  -0.3333333   0.4089564   0.0000000), wk =   0.0008681
        k(  984) = (   0.5208333   0.0841969   0.0000000), wk =   0.0008681
        k(  985) = (  -0.3333333  -0.4089564   0.0000000), wk =   0.0008681
        k(  986) = (   0.5208333  -0.0841969   0.0000000), wk =   0.0008681
[...]
     0.0000   0.0000   0.0000   0.0000

          k =-0.2500 0.5292 0.0000 (  3013 PWs)   bands (ev):

   -14.3182 -14.2416 -12.4555 -12.3963 -10.1701 -10.1279  -2.1309  -1.5554
     0.5617   1.0315   9.8038  10.7367

     occupation numbers 
     1.0000   1.0000   1.0000   1.0000   1.0000   1.0000   1.0000   1.0000
     0.0000   0.0000   0.0000   0.0000

          k =-0.3333 0.4811 0.0000 (  3013 PWs)   bands (ev):

   -14.3173 -14.2427 -12.4547 -12.3962 -10.1708 -10.1280  -2.1167  -1.5766
     0.5677   1.0343   9.7996  10.7463

     occupation numbers 
     1.0000   1.0000   1.0000   1.0000   1.0000   1.0000   1.0000   1.0000
     0.0000   0.0000   0.0000   0.0000

          k = 0.5833 0.0481 0.0000 (  3013 PWs)   bands (ev):

   -14.3171 -14.2430 -12.4566 -12.3937 -10.1719 -10.1273  -2.1143  -1.5778
     0.5429   1.0594   9.7904  10.7219

     occupation numbers 
     1.0000   1.0000   1.0000   1.0000   1.0000   1.0000   1.0000   1.0000
     0.0000   0.0000   0.0000   0.0000

          k =-0.3333-0.4811 0.0000 (  3013 PWs)   bands (ev):

   -14.3173 -14.2427 -12.4547 -12.3962 -10.1708 -10.1280  -2.1167  -1.5766
     0.5677   1.0343   9.7996  10.7463

     occupation numbers 
     1.0000   1.0000   1.0000   1.0000   1.0000   1.0000   1.0000   1.0000
     0.0000   0.0000   0.0000   0.0000

          k = 0.5833-0.0481 0.0000 (  3013 PWs)   bands (ev):

   -14.3171 -14.2430 -12.4566 -12.3937 -10.1719 -10.1273  -2.1143  -1.5778
     0.5429   1.0594   9.7904  10.7219

     occupation numbers 
     1.0000   1.0000   1.0000   1.0000   1.0000   1.0000   1.0000   1.0000
     0.0000   0.0000   0.0000   0.0000

          k =-0.2500 0.5533 0.0000 (  3011 PWs)   bands (ev):

   -13.9955 -13.9202 -12.7894 -12.7285 -10.2271 -10.1843  -1.8876  -1.3238
     0.3050   0.7876   9.7621  10.9579

     occupation numbers 
     1.0000   1.0000   1.0000   1.0000   1.0000   1.0000   1.0000   1.0000
     0.0000   0.0000   0.0000   0.0000

          k =-0.3542 0.4932 0.0000 (  3011 PWs)   bands (ev):

   -13.9934 -13.9231 -12.7876 -12.7288 -10.2280 -10.1843  -1.8641  -1.3600
     0.3147   0.7928   9.7561  10.9733

     occupation numbers 
     1.0000   1.0000   1.0000   1.0000   1.0000   1.0000   1.0000   1.0000
     0.0000   0.0000   0.0000   0.0000

          k = 0.6042 0.0601 0.0000 (  3011 PWs)   bands (ev):

   -13.9933 -13.9232 -12.7891 -12.7270 -10.2286 -10.1839  -1.8630  -1.3594
     0.2980   0.8087   9.7526  10.9581

     occupation numbers 
     1.0000   1.0000   1.0000   1.0000   1.0000   1.0000   1.0000   1.0000
     0.0000   0.0000   0.0000   0.0000

          k =-0.3542-0.4932 0.0000 (  3011 PWs)   bands (ev):

   -13.9934 -13.9231 -12.7876 -12.7288 -10.2280 -10.1843  -1.8641  -1.3600
     0.3147   0.7928   9.7561  10.9733

     occupation numbers 
     1.0000   1.0000   1.0000   1.0000   1.0000   1.0000   1.0000   1.0000
     0.0000   0.0000   0.0000   0.0000

          k = 0.6042-0.0601 0.0000 (  3011 PWs)   bands (ev):

   -13.9933 -13.9232 -12.7891 -12.7270 -10.2286 -10.1839  -1.8630  -1.3594
     0.2980   0.8087   9.7526  10.9581

     occupation numbers 
     1.0000   1.0000   1.0000   1.0000   1.0000   1.0000   1.0000   1.0000
     0.0000   0.0000   0.0000   0.0000

          k =-0.3750 0.5052 0.0000 (  3008 PWs)   bands (ev):

   -13.8304 -13.7647 -12.9517 -12.8942 -10.2469 -10.2025  -1.7628  -1.2778
     0.2113   0.7047   9.7398  11.0240

     occupation numbers 
     1.0000   1.0000   1.0000   1.0000   1.0000   1.0000   1.0000   1.0000
     0.0000   0.0000   0.0000   0.0000

          k = 0.6250 0.0722 0.0000 (  3008 PWs)   bands (ev):

   -13.8304 -13.7647 -12.9517 -12.8942 -10.2469 -10.2025  -1.7628  -1.2778
     0.2113   0.7047   9.7398  11.0240

     occupation numbers 
     1.0000   1.0000   1.0000   1.0000   1.0000   1.0000   1.0000   1.0000
     0.0000   0.0000   0.0000   0.0000

          k =-0.2708 0.4691 0.0000 (  3013 PWs)   bands (ev):

   -15.0479 -14.9674 -11.6220 -11.5704 -10.0172  -9.9783  -2.8068  -2.2021
     1.3047   1.7397   9.7339   9.8742

     occupation numbers 
     1.0000   1.0000   1.0000   1.0000   1.0000   1.0000   1.0000   1.0000
     0.0000   0.0000   0.0000   0.0000

          k = 0.5417-0.0000 0.0000 (  3013 PWs)   bands (ev):

   -15.0475 -14.9677 -11.6251 -11.5659 -10.0205  -9.9764  -2.8015  -2.2085
     1.2752   1.7738   9.7303   9.8116

     occupation numbers 
     1.0000   1.0000   1.0000   1.0000   1.0000   1.0000   1.0000   1.0000
     0.0000   0.0000   0.0000   0.0000

          k =-0.2708 0.4932 0.0000 (  3009 PWs)   bands (ev):

   -14.6916 -14.6133 -11.9213 -11.8675 -10.2472 -10.2071  -2.4418  -1.8533
     0.9246   1.3681   9.7904  10.2312

     occupation numbers 
     1.0000   1.0000   1.0000   1.0000   1.0000   1.0000   1.0000   1.0000
     0.0000   0.0000   0.0000   0.0000

          k =-0.2917 0.4811 0.0000 (  3009 PWs)   bands (ev):

   -14.6915 -14.6135 -11.9211 -11.8674 -10.2474 -10.2071  -2.4394  -1.8568
     0.9253   1.3689   9.7896  10.2312

     occupation numbers 
     1.0000   1.0000   1.0000   1.0000   1.0000   1.0000   1.0000   1.0000
     0.0000   0.0000   0.0000   0.0000

          k = 0.5625 0.0120 0.0000 (  3009 PWs)   bands (ev):

   -14.6911 -14.6139 -11.9242 -11.8631 -10.2504 -10.2053  -2.4341  -1.8626
     0.8950   1.4026   9.7680  10.2296

     occupation numbers 
     1.0000   1.0000   1.0000   1.0000   1.0000   1.0000   1.0000   1.0000
     0.0000   0.0000   0.0000   0.0000

          k =-0.2917-0.4811 0.0000 (  3009 PWs)   bands (ev):

   -14.6915 -14.6135 -11.9211 -11.8674 -10.2474 -10.2071  -2.4394  -1.8568
     0.9253   1.3689   9.7896  10.2312

     occupation numbers 
     1.0000   1.0000   1.0000   1.0000   1.0000   1.0000   1.0000   1.0000
     0.0000   0.0000   0.0000   0.0000

          k = 0.5625-0.0120 0.0000 (  3009 PWs)   bands (ev):

   -14.6911 -14.6139 -11.9242 -11.8631 -10.2504 -10.2053  -2.4341  -1.8626
     0.8950   1.4026   9.7680  10.2296

     occupation numbers 
     1.0000   1.0000   1.0000   1.0000   1.0000   1.0000   1.0000   1.0000
     0.0000   0.0000   0.0000   0.0000

          k =-0.2708 0.5172 0.0000 (  3012 PWs)   bands (ev):

   -14.3328 -14.2567 -12.2475 -12.1911 -10.4117 -10.3702  -2.0921  -1.5185
     0.5634   1.0173   9.6963  10.6981

     occupation numbers 
     1.0000   1.0000   1.0000   1.0000   1.0000   1.0000   1.0000   1.0000
     0.0000   0.0000   0.0000   0.0000

          k =-0.3125 0.4932 0.0000 (  3012 PWs)   bands (ev):

   -14.3325 -14.2572 -12.2472 -12.1909 -10.4122 -10.3701  -2.0849  -1.5293
     0.5658   1.0194   9.6940  10.7021

     occupation numbers 
     1.0000   1.0000   1.0000   1.0000   1.0000   1.0000   1.0000   1.0000
     0.0000   0.0000   0.0000   0.0000

          k = 0.5833 0.0241 0.0000 (  3012 PWs)   bands (ev):

   -14.3321 -14.2576 -12.2500 -12.1872 -10.4144 -10.3687  -2.0803  -1.5332
     0.5358   1.0509   9.6846  10.6816

     occupation numbers 
     1.0000   1.0000   1.0000   1.0000   1.0000   1.0000   1.0000   1.0000
     0.0000   0.0000   0.0000   0.0000

          k =-0.3125-0.4932 0.0000 (  3012 PWs)   bands (ev):

   -14.3325 -14.2572 -12.2472 -12.1909 -10.4122 -10.3701  -2.0849  -1.5293
     0.5658   1.0194   9.6940  10.7021

     occupation numbers 
     1.0000   1.0000   1.0000   1.0000   1.0000   1.0000   1.0000   1.0000
     0.0000   0.0000   0.0000   0.0000

          k = 0.5833-0.0241 0.0000 (  3012 PWs)   bands (ev):

   -14.3321 -14.2576 -12.2500 -12.1872 -10.4144 -10.3687  -2.0803  -1.5332
     0.5358   1.0509   9.6846  10.6816

     occupation numbers 
     1.0000   1.0000   1.0000   1.0000   1.0000   1.0000   1.0000   1.0000
     0.0000   0.0000   0.0000   0.0000

          k =-0.2708 0.5413 0.0000 (  3007 PWs)   bands (ev):

   -13.9877 -13.9132 -12.5775 -12.5187 -10.5158 -10.4731  -1.7867  -1.2249
     0.2493   0.7144   9.6247  10.8916

     occupation numbers 
     1.0000   1.0000   1.0000   1.0000   1.0000   1.0000   1.0000   1.0000
     0.0000   0.0000   0.0000   0.0000

          k =-0.3333 0.5052 0.0000 (  3007 PWs)   bands (ev):

   -13.9866 -13.9148 -12.5767 -12.5185 -10.5166 -10.4729  -1.7711  -1.2496
     0.2554   0.7188   9.6208  10.8950

     occupation numbers 
     1.0000   1.0000   1.0000   1.0000   1.0000   1.0000   1.0000   1.0000
     0.0000   0.0000   0.0000   0.0000

          k = 0.6042 0.0361 0.0000 (  3007 PWs)   bands (ev):

   -13.9863 -13.9151 -12.5792 -12.5155 -10.5179 -10.4721  -1.7680  -1.2502
     0.2286   0.7445   9.6165  10.8874

     occupation numbers 
     1.0000   1.0000   1.0000   1.0000   1.0000   1.0000   1.0000   1.0000
     0.0000   0.0000   0.0000   0.0000

          k =-0.3333-0.5052 0.0000 (  3007 PWs)   bands (ev):

   -13.9866 -13.9148 -12.5767 -12.5185 -10.5166 -10.4729  -1.7711  -1.2496
     0.2554   0.7188   9.6208  10.8950

     occupation numbers 
     1.0000   1.0000   1.0000   1.0000   1.0000   1.0000   1.0000   1.0000
     0.0000   0.0000   0.0000   0.0000

          k = 0.6042-0.0361 0.0000 (  3007 PWs)   bands (ev):

   -13.9863 -13.9151 -12.5792 -12.5155 -10.5179 -10.4721  -1.7680  -1.2502
     0.2286   0.7445   9.6165  10.8874

     occupation numbers 
     1.0000   1.0000   1.0000   1.0000   1.0000   1.0000   1.0000   1.0000
     0.0000   0.0000   0.0000   0.0000

          k =-0.2708 0.5653 0.0000 (  3008 PWs)   bands (ev):

   -13.7175 -13.6436 -12.8425 -12.7826 -10.5659 -10.5226  -1.5894  -1.0335
     0.0462   0.5200   9.5866  10.9629

     occupation numbers 
     1.0000   1.0000   1.0000   1.0000   1.0000   1.0000   1.0000   1.0000
     0.0000   0.0000   0.0000   0.0000

          k =-0.3542 0.5172 0.0000 (  3008 PWs)   bands (ev):

   -13.7143 -13.6479 -12.8404 -12.7827 -10.5671 -10.5222  -1.5631  -1.0767
     0.0547   0.5304   9.5814  10.9641

     occupation numbers 
     1.0000   1.0000   1.0000   1.0000   1.0000   1.0000   1.0000   1.0000
     0.0000   0.0000   0.0000   0.0000

          k = 0.6250 0.0481 0.0000 (  3008 PWs)   bands (ev):

   -13.7143 -13.6480 -12.8419 -12.7810 -10.5676 -10.5220  -1.5622  -1.0754
     0.0418   0.5415   9.5802  10.9609

     occupation numbers 
     1.0000   1.0000   1.0000   1.0000   1.0000   1.0000   1.0000   1.0000
     0.0000   0.0000   0.0000   0.0000

          k =-0.3542-0.5172 0.0000 (  3008 PWs)   bands (ev):

   -13.7143 -13.6479 -12.8404 -12.7827 -10.5671 -10.5222  -1.5631  -1.0767
     0.0547   0.5304   9.5814  10.9641

     occupation numbers 
     1.0000   1.0000   1.0000   1.0000   1.0000   1.0000   1.0000   1.0000
     0.0000   0.0000   0.0000   0.0000

          k = 0.6250-0.0481 0.0000 (  3008 PWs)   bands (ev):

   -13.7143 -13.6480 -12.8419 -12.7810 -10.5676 -10.5220  -1.5622  -1.0754
     0.0418   0.5415   9.5802  10.9609

     occupation numbers 
     1.0000   1.0000   1.0000   1.0000   1.0000   1.0000   1.0000   1.0000
     0.0000   0.0000   0.0000   0.0000

          k =-0.2917 0.5052 0.0000 (  3011 PWs)   bands (ev):

   -14.3380 -14.2622 -12.1628 -12.1080 -10.5068 -10.4658  -2.0769  -1.5098
     0.5650   1.0138   9.6587  10.6827

     occupation numbers 
     1.0000   1.0000   1.0000   1.0000   1.0000   1.0000   1.0000   1.0000
     0.0000   0.0000   0.0000   0.0000

          k = 0.5833-0.0000 0.0000 (  3011 PWs)   bands (ev):

   -14.3375 -14.2629 -12.1661 -12.1033 -10.5099 -10.4640  -2.0692  -1.5181
     0.5337   1.0485   9.6484  10.6658

     occupation numbers 
     1.0000   1.0000   1.0000   1.0000   1.0000   1.0000   1.0000   1.0000
     0.0000   0.0000   0.0000   0.0000

          k =-0.2917 0.5292 0.0000 (  3004 PWs)   bands (ev):

   -13.9875 -13.9138 -12.4355 -12.3787 -10.6918 -10.6500  -1.7315  -1.1770
     0.2212   0.6770   9.5527  10.8499

     occupation numbers 
     1.0000   1.0000   1.0000   1.0000   1.0000   1.0000   1.0000   1.0000
     0.0000   0.0000   0.0000   0.0000

          k =-0.3125 0.5172 0.0000 (  3004 PWs)   bands (ev):

   -13.9871 -13.9143 -12.4353 -12.3785 -10.6922 -10.6499  -1.7260  -1.1858
     0.2233   0.6788   9.5514  10.8506

     occupation numbers 
     1.0000   1.0000   1.0000   1.0000   1.0000   1.0000   1.0000   1.0000
     0.0000   0.0000   0.0000   0.0000

          k = 0.6042 0.0120 0.0000 (  3004 PWs)   bands (ev):

   -13.9866 -13.9150 -12.4386 -12.3741 -10.6946 -10.6484  -1.7194  -1.1907
     0.1905   0.7117   9.5460  10.8451

     occupation numbers 
     1.0000   1.0000   1.0000   1.0000   1.0000   1.0000   1.0000   1.0000
     0.0000   0.0000   0.0000   0.0000

          k =-0.3125-0.5172 0.0000 (  3004 PWs)   bands (ev):

   -13.9871 -13.9143 -12.4353 -12.3785 -10.6922 -10.6499  -1.7260  -1.1858
     0.2233   0.6788   9.5514  10.8506

     occupation numbers 
     1.0000   1.0000   1.0000   1.0000   1.0000   1.0000   1.0000   1.0000
     0.0000   0.0000   0.0000   0.0000

          k = 0.6042-0.0120 0.0000 (  3004 PWs)   bands (ev):

   -13.9866 -13.9150 -12.4386 -12.3741 -10.6946 -10.6484  -1.7194  -1.1907
     0.1905   0.7117   9.5460  10.8451

     occupation numbers 
     1.0000   1.0000   1.0000   1.0000   1.0000   1.0000   1.0000   1.0000
     0.0000   0.0000   0.0000   0.0000

          k =-0.2917 0.5533 0.0000 (  3000 PWs)   bands (ev):

   -13.6658 -13.5935 -12.7137 -12.6551 -10.8005 -10.7578  -1.4420  -0.8932
    -0.0700   0.3939   9.4850  10.9115

     occupation numbers 
     1.0000   1.0000   1.0000   1.0000   1.0000   1.0000   1.0000   1.0000
     0.0000   0.0000   0.0000   0.0000

          k =-0.3333 0.5292 0.0000 (  3000 PWs)   bands (ev):

   -13.6643 -13.5956 -12.7130 -12.6548 -10.8014 -10.7575  -1.4253  -0.9232
    -0.0618   0.4001   9.4823  10.9114

     occupation numbers 
     1.0000   1.0000   1.0000   1.0000   1.0000   1.0000   1.0000   1.0000
     0.0000   0.0000   0.0000   0.0000

          k = 0.6250 0.0241 0.0000 (  3000 PWs)   bands (ev):

   -13.6640 -13.5961 -12.7160 -12.6512 -10.8027 -10.7566  -1.4214  -0.9212
    -0.0917   0.4252   9.4799  10.9075

     occupation numbers 
     1.0000   1.0000   1.0000   1.0000   1.0000   1.0000   1.0000   1.0000
     0.0000   0.0000   0.0000   0.0000

          k =-0.3333-0.5292 0.0000 (  3000 PWs)   bands (ev):

   -13.6643 -13.5956 -12.7130 -12.6548 -10.8014 -10.7575  -1.4253  -0.9232
    -0.0618   0.4001   9.4823  10.9114

     occupation numbers 
     1.0000   1.0000   1.0000   1.0000   1.0000   1.0000   1.0000   1.0000
     0.0000   0.0000   0.0000   0.0000

          k = 0.6250-0.0241 0.0000 (  3000 PWs)   bands (ev):

   -13.6640 -13.5961 -12.7160 -12.6512 -10.8027 -10.7566  -1.4214  -0.9212
    -0.0917   0.4252   9.4799  10.9075

     occupation numbers 
     1.0000   1.0000   1.0000   1.0000   1.0000   1.0000   1.0000   1.0000
     0.0000   0.0000   0.0000   0.0000

          k =-0.3542 0.5413 0.0000 (  3006 PWs)   bands (ev):

   -13.4898 -13.4265 -12.8716 -12.8121 -10.8376 -10.7923  -1.2848  -0.8125
    -0.1973   0.2848   9.4579  10.9239

     occupation numbers 
     1.0000   1.0000   1.0000   1.0000   1.0000   1.0000   1.0000   1.0000
     0.0000   0.0000   0.0000   0.0000

          k = 0.6458 0.0361 0.0000 (  3006 PWs)   bands (ev):

   -13.4898 -13.4265 -12.8716 -12.8121 -10.8376 -10.7923  -1.2848  -0.8125
    -0.1973   0.2848   9.4579  10.9239

     occupation numbers 
     1.0000   1.0000   1.0000   1.0000   1.0000   1.0000   1.0000   1.0000
     0.0000   0.0000   0.0000   0.0000

          k =-0.3125 0.5413 0.0000 (  3009 PWs)   bands (ev):

   -13.6518 -13.5812 -12.6550 -12.5972 -10.8907 -10.8482  -1.3805  -0.8516
    -0.1107   0.3477   9.4495  10.8919

     occupation numbers 
     1.0000   1.0000   1.0000   1.0000   1.0000   1.0000   1.0000   1.0000
     0.0000   0.0000   0.0000   0.0000

          k = 0.6250-0.0000 0.0000 (  3009 PWs)   bands (ev):

   -13.6510 -13.5824 -12.6587 -12.5924 -10.8928 -10.8468  -1.3694  -0.8589
    -0.1471   0.3818   9.4458  10.8877

     occupation numbers 
     1.0000   1.0000   1.0000   1.0000   1.0000   1.0000   1.0000   1.0000
     0.0000   0.0000   0.0000   0.0000

          k =-0.3125 0.5653 0.0000 (  3013 PWs)   bands (ev):

   -13.3651 -13.2949 -12.8821 -12.8229 -10.9928 -10.9501  -1.0992  -0.5679
    -0.3905   0.0704   9.3966  10.8979

     occupation numbers 
     1.0000   1.0000   1.0000   1.0000   1.0000   1.0000   1.0000   1.0000
     0.0000   0.0000   0.0000   0.0000

          k =-0.3333 0.5533 0.0000 (  3013 PWs)   bands (ev):

   -13.3631 -13.2979 -12.8815 -12.8223 -10.9935 -10.9497  -1.0826  -0.6181
    -0.3651   0.0791   9.3953  10.8971

     occupation numbers 
     1.0000   1.0000   1.0000   1.0000   1.0000   1.0000   1.0000   1.0000
     0.0000   0.0000   0.0000   0.0000

          k = 0.6458 0.0120 0.0000 (  3013 PWs)   bands (ev):

   -13.3628 -13.2983 -12.8848 -12.8185 -10.9943 -10.9492  -1.0769  -0.6007
    -0.4101   0.1016   9.3942  10.8954

     occupation numbers 
     1.0000   1.0000   1.0000   1.0000   1.0000   1.0000   1.0000   1.0000
     0.0000   0.0000   0.0000   0.0000

          k =-0.3333-0.5533 0.0000 (  3013 PWs)   bands (ev):

   -13.3631 -13.2979 -12.8815 -12.8223 -10.9935 -10.9497  -1.0826  -0.6181
    -0.3651   0.0791   9.3953  10.8971

     occupation numbers 
     1.0000   1.0000   1.0000   1.0000   1.0000   1.0000   1.0000   1.0000
     0.0000   0.0000   0.0000   0.0000

          k = 0.6458-0.0120 0.0000 (  3013 PWs)   bands (ev):

   -13.3628 -13.2983 -12.8848 -12.8185 -10.9943 -10.9492  -1.0769  -0.6007
    -0.4101   0.1016   9.3942  10.8954

     occupation numbers 
     1.0000   1.0000   1.0000   1.0000   1.0000   1.0000   1.0000   1.0000
     0.0000   0.0000   0.0000   0.0000

     the Fermi energy is    -0.4881 ev

     Writing output data file g.dos1.save

     init_run     :      2.90s CPU      2.97s WALL (       1 calls)
     electrons    :   1927.32s CPU   1935.60s WALL (       1 calls)

     Called by init_run:
     wfcinit      :      0.00s CPU      0.00s WALL (       1 calls)
     potinit      :      0.68s CPU      0.71s WALL (       1 calls)

     Called by electrons:
     c_bands      :   1927.20s CPU   1935.48s WALL (       1 calls)
     v_of_rho     :      0.60s CPU      0.62s WALL (       1 calls)
     v_h          :      0.01s CPU      0.01s WALL (       1 calls)
     v_xc         :      0.59s CPU      0.61s WALL (       1 calls)
     newd         :      0.32s CPU      0.32s WALL (       1 calls)

     Called by c_bands:
     init_us_2    :      2.58s CPU      2.64s WALL (    2308 calls)
     cegterg      :   1808.59s CPU   1816.23s WALL (    5454 calls)

     Called by sum_band:

     Called by *egterg:
     h_psi        :   1010.04s CPU   1016.43s WALL (   96304 calls)
     s_psi        :    147.84s CPU    148.25s WALL (   96304 calls)
     g_psi        :      9.77s CPU      9.81s WALL (   88542 calls)
     cdiaghg      :     64.23s CPU     64.48s WALL (   90850 calls)
     cegterg:over :    266.83s CPU    267.35s WALL (   88542 calls)
     cegterg:upda :    194.24s CPU    194.60s WALL (   88542 calls)
     cegterg:last :    158.99s CPU    159.14s WALL (   14755 calls)

     Called by h_psi:
     h_psi:vloc   :    692.83s CPU    698.03s WALL (   96304 calls)
     h_psi:vnl    :    311.96s CPU    313.15s WALL (   96304 calls)
     add_vuspsi   :    148.87s CPU    149.26s WALL (   96304 calls)

     General routines
     calbec       :    162.42s CPU    163.33s WALL (   96304 calls)
     fft          :      0.22s CPU      0.22s WALL (      22 calls)
     ffts         :      0.00s CPU      0.00s WALL (       2 calls)
     fftw         :    499.38s CPU    503.11s WALL ( 1095020 calls)
     interpolate  :      0.02s CPU      0.02s WALL (       2 calls)

     Parallel routines
     fft_scatter  :     80.81s CPU     81.39s WALL ( 1095044 calls)

     PWSCF        : 32m24.26s CPU    32m38.33s WALL


   This run was terminated on:   4:12:29   1May2020            

=------------------------------------------------------------------------------=
   JOB DONE.
=------------------------------------------------------------------------------=
