
     Program PWSCF v.5.1 starts on  1May2020 at  5:56:13 

     This program is part of the open-source Quantum ESPRESSO suite
     for quantum simulation of materials; please cite
         "P. Giannozzi et al., J. Phys.:Condens. Matter 21 395502 (2009);
          URL http://www.quantum-espresso.org", 
     in publications or presentations arising from this work. More details at
     http://www.quantum-espresso.org/quote

     Parallel version (MPI), running on     1 processors
     Waiting for input...
     Reading input from standard input

     Current dimensions of program PWSCF are:
     Max number of different atomic species (ntypx) = 10
     Max number of k-points (npk) =  40000
     Max angular momentum in pseudopotentials (lmaxx) =  3

     IMPORTANT: XC functional enforced from input :
     Exchange-correlation      = PBE ( 1  4  3  4 0)
     Any further DFT definition will be discarded
     Please, verify this is what you really want

               file C.pbe-rrkjus.UPF: wavefunction(s)  2S 2P renormalized

     Subspace diagonalization in iterative solution of the eigenvalue problem:
     a serial algorithm will be used


     G-vector sticks info
     --------------------
     sticks:   dense  smooth     PW     G-vecs:    dense   smooth      PW
     Sum         595     241     85                96043    24369    4587

     Generating pointlists ...
     new r_m :   0.2381 (alat units)  1.1104 (a.u.) for type    1

     Title: 
     graphene                                                                   


     bravais-lattice index     =           12
     lattice parameter (alat)  =       4.6627  a.u.
     unit-cell volume          =     711.6007 (a.u.)^3
     number of atoms/cell      =            4
     number of atomic types    =            1
     number of electrons       =        16.00
     number of Kohn-Sham states=           16
     kinetic-energy cutoff     =      40.0000  Ry
     charge density cutoff     =     400.0000  Ry
     convergence threshold     =      1.0E-10
     mixing beta               =       0.3000
     number of iterations used =            8  plain     mixing
     Exchange-correlation      = PBE ( 1  4  3  4 0)

     celldm(1)=   4.662710  celldm(2)=   1.000000  celldm(3)=   8.105698
     celldm(4)=  -0.500000  celldm(5)=   0.000000  celldm(6)=   0.000000

     crystal axes: (cart. coord. in units of alat)
               a(1) = (   1.000000   0.000000   0.000000 )  
               a(2) = (  -0.500000   0.866025   0.000000 )  
               a(3) = (   0.000000   0.000000   8.105698 )  

     reciprocal axes: (cart. coord. in units 2 pi/alat)
               b(1) = (  1.000000  0.577350 -0.000000 )  
               b(2) = (  0.000000  1.154701  0.000000 )  
               b(3) = (  0.000000 -0.000000  0.123370 )  


     PseudoPot. # 1 for C  read from file:
     ../pseudo/C.pbe-rrkjus.UPF
     MD5 check sum: 00fb224312de0c5b6853bd333518df6f
     Pseudo is Ultrasoft, Zval =  4.0
     Generated by new atomic code, or converted to UPF format
     Using radial grid of  627 points,  4 beta functions with: 
                l(1) =   0
                l(2) =   0
                l(3) =   1
                l(4) =   1
     Q(r) pseudized with 0 coefficients 


     atomic species   valence    mass     pseudopotential
        C              4.00    12.01100     C ( 1.00)

     Starting magnetic structure 
     atomic species   magnetization
        C           -0.500

     No symmetry found
          (note:  3 additional sym.ops. were found but ignored
           their fractional translations are incommensurate with FFT grid)

                                    s                        frac. trans.

      isym =  1     identity                                     

 cryst.   s( 1) = (     1          0          0      )
                  (     0          1          0      )
                  (     0          0          1      )

 cart.    s( 1) = (  1.0000000  0.0000000  0.0000000 )
                  (  0.0000000  1.0000000  0.0000000 )
                  (  0.0000000  0.0000000  1.0000000 )


     point group C_1 (1)    
     there are  1 classes
     the character table:

       E    
A      1.00

     the symmetry operations in each class:
     E        1

   Cartesian axes

     site n.     atom                  positions (alat units)
         1           C   tau(   1) = (   0.0000000   0.0000000   2.0264246  )
         2           C   tau(   2) = (   0.0000000   0.5773284   2.0264246  )
         3           C   tau(   3) = (   0.1621140   0.0000000   3.4368161  )
         4           C   tau(   4) = (   0.1621140   0.5773284   3.4368161  )

   Crystallographic axes

     site n.     atom                  positions (cryst. coord.)
         1           C   tau(   1) = (  0.0000000  0.0000000  0.2500000  )
         2           C   tau(   2) = (  0.3333207  0.6666414  0.2500000  )
         3           C   tau(   3) = (  0.1621140  0.0000000  0.4240000  )
         4           C   tau(   4) = (  0.4954347  0.6666414  0.4240000  )

     number of k points=   148  Marzari-Vanderbilt smearing, width (Ry)=  0.0001
                       cart. coord. in units 2pi/alat
        k(    1) = (   0.0000000   0.0000000   0.0000000), wk =   0.0069444
        k(    2) = (   0.0000000   0.0962250   0.0000000), wk =   0.0138889
        k(    3) = (   0.0000000   0.1924501   0.0000000), wk =   0.0138889
        k(    4) = (   0.0000000   0.2886751   0.0000000), wk =   0.0138889
        k(    5) = (   0.0000000   0.3849002   0.0000000), wk =   0.0138889
        k(    6) = (   0.0000000   0.4811252   0.0000000), wk =   0.0138889
        k(    7) = (   0.0000000  -0.5773503   0.0000000), wk =   0.0069444
        k(    8) = (   0.0833333   0.1443376   0.0000000), wk =   0.0138889
        k(    9) = (   0.0833333   0.2405626   0.0000000), wk =   0.0138889
        k(   10) = (   0.0833333   0.3367877   0.0000000), wk =   0.0138889
        k(   11) = (   0.0833333   0.4330127   0.0000000), wk =   0.0138889
        k(   12) = (   0.0833333   0.5292377   0.0000000), wk =   0.0138889
        k(   13) = (   0.1666667   0.2886751   0.0000000), wk =   0.0138889
        k(   14) = (   0.1666667   0.3849002   0.0000000), wk =   0.0138889
        k(   15) = (   0.1666667   0.4811252   0.0000000), wk =   0.0138889
        k(   16) = (   0.1666667   0.5773503   0.0000000), wk =   0.0138889
        k(   17) = (   0.2500000   0.4330127   0.0000000), wk =   0.0138889
        k(   18) = (   0.2500000   0.5292377   0.0000000), wk =   0.0138889
        k(   19) = (   0.3333333   0.5773503   0.0000000), wk =   0.0138889
        k(   20) = (  -0.0833333   0.0481125   0.0000000), wk =   0.0138889
        k(   21) = (   0.0833333   0.0481125   0.0000000), wk =   0.0138889
        k(   22) = (  -0.1666667   0.0962250   0.0000000), wk =   0.0138889
        k(   23) = (   0.1666667   0.0962250   0.0000000), wk =   0.0138889
        k(   24) = (  -0.2500000   0.1443376   0.0000000), wk =   0.0138889
        k(   25) = (   0.2500000   0.1443376   0.0000000), wk =   0.0138889
        k(   26) = (  -0.3333333   0.1924501   0.0000000), wk =   0.0138889
        k(   27) = (   0.3333333   0.1924501   0.0000000), wk =   0.0138889
        k(   28) = (  -0.4166667   0.2405626   0.0000000), wk =   0.0138889
        k(   29) = (   0.4166667   0.2405626   0.0000000), wk =   0.0138889
        k(   30) = (   0.5000000  -0.2886751   0.0000000), wk =   0.0069444
        k(   31) = (  -0.5000000  -0.2886751   0.0000000), wk =   0.0069444
        k(   32) = (  -0.0833333   0.1443376   0.0000000), wk =   0.0138889
        k(   33) = (   0.1666667  -0.0000000   0.0000000), wk =   0.0138889
        k(   34) = (  -0.0833333   0.2405626   0.0000000), wk =   0.0138889
        k(   35) = (  -0.1666667   0.1924501   0.0000000), wk =   0.0138889
        k(   36) = (   0.2500000   0.0481125   0.0000000), wk =   0.0138889
        k(   37) = (  -0.1666667  -0.1924501   0.0000000), wk =   0.0138889
        k(   38) = (   0.2500000  -0.0481125   0.0000000), wk =   0.0138889
        k(   39) = (  -0.0833333   0.3367877   0.0000000), wk =   0.0138889
        k(   40) = (  -0.2500000   0.2405626   0.0000000), wk =   0.0138889
        k(   41) = (   0.3333333   0.0962250   0.0000000), wk =   0.0138889
        k(   42) = (  -0.2500000  -0.2405626   0.0000000), wk =   0.0138889
        k(   43) = (   0.3333333  -0.0962250   0.0000000), wk =   0.0138889
        k(   44) = (  -0.0833333   0.4330127   0.0000000), wk =   0.0138889
        k(   45) = (  -0.3333333   0.2886751   0.0000000), wk =   0.0138889
        k(   46) = (   0.4166667   0.1443376   0.0000000), wk =   0.0138889
        k(   47) = (  -0.3333333  -0.2886751   0.0000000), wk =   0.0138889
        k(   48) = (   0.4166667  -0.1443376   0.0000000), wk =   0.0138889
        k(   49) = (  -0.0833333   0.5292377   0.0000000), wk =   0.0138889
        k(   50) = (  -0.4166667   0.3367877   0.0000000), wk =   0.0138889
        k(   51) = (   0.5000000   0.1924501   0.0000000), wk =   0.0138889
        k(   52) = (  -0.4166667  -0.3367877   0.0000000), wk =   0.0138889
        k(   53) = (   0.5000000  -0.1924501   0.0000000), wk =   0.0138889
        k(   54) = (  -0.1666667   0.2886751   0.0000000), wk =   0.0138889
        k(   55) = (   0.3333333  -0.0000000   0.0000000), wk =   0.0138889
        k(   56) = (  -0.1666667   0.3849002   0.0000000), wk =   0.0138889
        k(   57) = (  -0.2500000   0.3367877   0.0000000), wk =   0.0138889
        k(   58) = (   0.4166667   0.0481125   0.0000000), wk =   0.0138889
        k(   59) = (  -0.2500000  -0.3367877   0.0000000), wk =   0.0138889
        k(   60) = (   0.4166667  -0.0481125   0.0000000), wk =   0.0138889
        k(   61) = (  -0.1666667   0.4811252   0.0000000), wk =   0.0138889
        k(   62) = (  -0.3333333   0.3849002   0.0000000), wk =   0.0138889
        k(   63) = (   0.5000000   0.0962250   0.0000000), wk =   0.0138889
        k(   64) = (  -0.3333333  -0.3849002   0.0000000), wk =   0.0138889
        k(   65) = (   0.5000000  -0.0962250   0.0000000), wk =   0.0138889
        k(   66) = (  -0.4166667   0.4330127   0.0000000), wk =   0.0138889
        k(   67) = (   0.5833333   0.1443376   0.0000000), wk =   0.0138889
        k(   68) = (  -0.2500000   0.4330127   0.0000000), wk =   0.0138889
        k(   69) = (   0.5000000   0.0000000   0.0000000), wk =   0.0138889
        k(   70) = (  -0.2500000   0.5292377   0.0000000), wk =   0.0138889
        k(   71) = (  -0.3333333   0.4811252   0.0000000), wk =   0.0138889
        k(   72) = (   0.5833333   0.0481125   0.0000000), wk =   0.0138889
        k(   73) = (  -0.3333333  -0.4811252   0.0000000), wk =   0.0138889
        k(   74) = (   0.5833333  -0.0481125   0.0000000), wk =   0.0138889
        k(   75) = (   0.0000000   0.0000000   0.0000000), wk =   0.0069444
        k(   76) = (   0.0000000   0.0962250   0.0000000), wk =   0.0138889
        k(   77) = (   0.0000000   0.1924501   0.0000000), wk =   0.0138889
        k(   78) = (   0.0000000   0.2886751   0.0000000), wk =   0.0138889
        k(   79) = (   0.0000000   0.3849002   0.0000000), wk =   0.0138889
        k(   80) = (   0.0000000   0.4811252   0.0000000), wk =   0.0138889
        k(   81) = (   0.0000000  -0.5773503   0.0000000), wk =   0.0069444
        k(   82) = (   0.0833333   0.1443376   0.0000000), wk =   0.0138889
        k(   83) = (   0.0833333   0.2405626   0.0000000), wk =   0.0138889
        k(   84) = (   0.0833333   0.3367877   0.0000000), wk =   0.0138889
        k(   85) = (   0.0833333   0.4330127   0.0000000), wk =   0.0138889
        k(   86) = (   0.0833333   0.5292377   0.0000000), wk =   0.0138889
        k(   87) = (   0.1666667   0.2886751   0.0000000), wk =   0.0138889
        k(   88) = (   0.1666667   0.3849002   0.0000000), wk =   0.0138889
        k(   89) = (   0.1666667   0.4811252   0.0000000), wk =   0.0138889
        k(   90) = (   0.1666667   0.5773503   0.0000000), wk =   0.0138889
        k(   91) = (   0.2500000   0.4330127   0.0000000), wk =   0.0138889
        k(   92) = (   0.2500000   0.5292377   0.0000000), wk =   0.0138889
        k(   93) = (   0.3333333   0.5773503   0.0000000), wk =   0.0138889
        k(   94) = (  -0.0833333   0.0481125   0.0000000), wk =   0.0138889
        k(   95) = (   0.0833333   0.0481125   0.0000000), wk =   0.0138889
        k(   96) = (  -0.1666667   0.0962250   0.0000000), wk =   0.0138889
        k(   97) = (   0.1666667   0.0962250   0.0000000), wk =   0.0138889
        k(   98) = (  -0.2500000   0.1443376   0.0000000), wk =   0.0138889
        k(   99) = (   0.2500000   0.1443376   0.0000000), wk =   0.0138889
        k(  100) = (  -0.3333333   0.1924501   0.0000000), wk =   0.0138889
        k(  101) = (   0.3333333   0.1924501   0.0000000), wk =   0.0138889
        k(  102) = (  -0.4166667   0.2405626   0.0000000), wk =   0.0138889
        k(  103) = (   0.4166667   0.2405626   0.0000000), wk =   0.0138889
        k(  104) = (   0.5000000  -0.2886751   0.0000000), wk =   0.0069444
        k(  105) = (  -0.5000000  -0.2886751   0.0000000), wk =   0.0069444
        k(  106) = (  -0.0833333   0.1443376   0.0000000), wk =   0.0138889
        k(  107) = (   0.1666667  -0.0000000   0.0000000), wk =   0.0138889
        k(  108) = (  -0.0833333   0.2405626   0.0000000), wk =   0.0138889
        k(  109) = (  -0.1666667   0.1924501   0.0000000), wk =   0.0138889
        k(  110) = (   0.2500000   0.0481125   0.0000000), wk =   0.0138889
        k(  111) = (  -0.1666667  -0.1924501   0.0000000), wk =   0.0138889
        k(  112) = (   0.2500000  -0.0481125   0.0000000), wk =   0.0138889
        k(  113) = (  -0.0833333   0.3367877   0.0000000), wk =   0.0138889
        k(  114) = (  -0.2500000   0.2405626   0.0000000), wk =   0.0138889
        k(  115) = (   0.3333333   0.0962250   0.0000000), wk =   0.0138889
        k(  116) = (  -0.2500000  -0.2405626   0.0000000), wk =   0.0138889
        k(  117) = (   0.3333333  -0.0962250   0.0000000), wk =   0.0138889
        k(  118) = (  -0.0833333   0.4330127   0.0000000), wk =   0.0138889
        k(  119) = (  -0.3333333   0.2886751   0.0000000), wk =   0.0138889
        k(  120) = (   0.4166667   0.1443376   0.0000000), wk =   0.0138889
        k(  121) = (  -0.3333333  -0.2886751   0.0000000), wk =   0.0138889
        k(  122) = (   0.4166667  -0.1443376   0.0000000), wk =   0.0138889
        k(  123) = (  -0.0833333   0.5292377   0.0000000), wk =   0.0138889
        k(  124) = (  -0.4166667   0.3367877   0.0000000), wk =   0.0138889
        k(  125) = (   0.5000000   0.1924501   0.0000000), wk =   0.0138889
        k(  126) = (  -0.4166667  -0.3367877   0.0000000), wk =   0.0138889
        k(  127) = (   0.5000000  -0.1924501   0.0000000), wk =   0.0138889
        k(  128) = (  -0.1666667   0.2886751   0.0000000), wk =   0.0138889
        k(  129) = (   0.3333333  -0.0000000   0.0000000), wk =   0.0138889
        k(  130) = (  -0.1666667   0.3849002   0.0000000), wk =   0.0138889
        k(  131) = (  -0.2500000   0.3367877   0.0000000), wk =   0.0138889
        k(  132) = (   0.4166667   0.0481125   0.0000000), wk =   0.0138889
        k(  133) = (  -0.2500000  -0.3367877   0.0000000), wk =   0.0138889
        k(  134) = (   0.4166667  -0.0481125   0.0000000), wk =   0.0138889
        k(  135) = (  -0.1666667   0.4811252   0.0000000), wk =   0.0138889
        k(  136) = (  -0.3333333   0.3849002   0.0000000), wk =   0.0138889
        k(  137) = (   0.5000000   0.0962250   0.0000000), wk =   0.0138889
        k(  138) = (  -0.3333333  -0.3849002   0.0000000), wk =   0.0138889
        k(  139) = (   0.5000000  -0.0962250   0.0000000), wk =   0.0138889
        k(  140) = (  -0.4166667   0.4330127   0.0000000), wk =   0.0138889
        k(  141) = (   0.5833333   0.1443376   0.0000000), wk =   0.0138889
        k(  142) = (  -0.2500000   0.4330127   0.0000000), wk =   0.0138889
        k(  143) = (   0.5000000   0.0000000   0.0000000), wk =   0.0138889
        k(  144) = (  -0.2500000   0.5292377   0.0000000), wk =   0.0138889
        k(  145) = (  -0.3333333   0.4811252   0.0000000), wk =   0.0138889
        k(  146) = (   0.5833333   0.0481125   0.0000000), wk =   0.0138889
        k(  147) = (  -0.3333333  -0.4811252   0.0000000), wk =   0.0138889
        k(  148) = (   0.5833333  -0.0481125   0.0000000), wk =   0.0138889

                       cryst. coord.
        k(    1) = (   0.0000000   0.0000000   0.0000000), wk =   0.0069444
        k(    2) = (   0.0000000   0.0833333   0.0000000), wk =   0.0138889
        k(    3) = (   0.0000000   0.1666667   0.0000000), wk =   0.0138889
        k(    4) = (   0.0000000   0.2500000   0.0000000), wk =   0.0138889
        k(    5) = (   0.0000000   0.3333333   0.0000000), wk =   0.0138889
        k(    6) = (   0.0000000   0.4166667   0.0000000), wk =   0.0138889
        k(    7) = (   0.0000000  -0.5000000   0.0000000), wk =   0.0069444
        k(    8) = (   0.0833333   0.0833333   0.0000000), wk =   0.0138889
        k(    9) = (   0.0833333   0.1666667   0.0000000), wk =   0.0138889
        k(   10) = (   0.0833333   0.2500000   0.0000000), wk =   0.0138889
        k(   11) = (   0.0833333   0.3333333   0.0000000), wk =   0.0138889
        k(   12) = (   0.0833333   0.4166667   0.0000000), wk =   0.0138889
        k(   13) = (   0.1666667   0.1666667   0.0000000), wk =   0.0138889
        k(   14) = (   0.1666667   0.2500000   0.0000000), wk =   0.0138889
        k(   15) = (   0.1666667   0.3333333   0.0000000), wk =   0.0138889
        k(   16) = (   0.1666667   0.4166667   0.0000000), wk =   0.0138889
        k(   17) = (   0.2500000   0.2500000   0.0000000), wk =   0.0138889
        k(   18) = (   0.2500000   0.3333333   0.0000000), wk =   0.0138889
        k(   19) = (   0.3333333   0.3333333   0.0000000), wk =   0.0138889
        k(   20) = (  -0.0833333   0.0833333   0.0000000), wk =   0.0138889
        k(   21) = (   0.0833333   0.0000000   0.0000000), wk =   0.0138889
        k(   22) = (  -0.1666667   0.1666667   0.0000000), wk =   0.0138889
        k(   23) = (   0.1666667   0.0000000   0.0000000), wk =   0.0138889
        k(   24) = (  -0.2500000   0.2500000   0.0000000), wk =   0.0138889
        k(   25) = (   0.2500000   0.0000000   0.0000000), wk =   0.0138889
        k(   26) = (  -0.3333333   0.3333333   0.0000000), wk =   0.0138889
        k(   27) = (   0.3333333   0.0000000   0.0000000), wk =   0.0138889
        k(   28) = (  -0.4166667   0.4166667   0.0000000), wk =   0.0138889
        k(   29) = (   0.4166667   0.0000000   0.0000000), wk =   0.0138889
        k(   30) = (   0.5000000  -0.5000000   0.0000000), wk =   0.0069444
        k(   31) = (  -0.5000000   0.0000000   0.0000000), wk =   0.0069444
        k(   32) = (  -0.0833333   0.1666667   0.0000000), wk =   0.0138889
        k(   33) = (   0.1666667  -0.0833333   0.0000000), wk =   0.0138889
        k(   34) = (  -0.0833333   0.2500000   0.0000000), wk =   0.0138889
        k(   35) = (  -0.1666667   0.2500000   0.0000000), wk =   0.0138889
        k(   36) = (   0.2500000  -0.0833333   0.0000000), wk =   0.0138889
        k(   37) = (  -0.1666667  -0.0833333   0.0000000), wk =   0.0138889
        k(   38) = (   0.2500000  -0.1666667   0.0000000), wk =   0.0138889
        k(   39) = (  -0.0833333   0.3333333   0.0000000), wk =   0.0138889
        k(   40) = (  -0.2500000   0.3333333   0.0000000), wk =   0.0138889
        k(   41) = (   0.3333333  -0.0833333   0.0000000), wk =   0.0138889
        k(   42) = (  -0.2500000  -0.0833333   0.0000000), wk =   0.0138889
        k(   43) = (   0.3333333  -0.2500000   0.0000000), wk =   0.0138889
        k(   44) = (  -0.0833333   0.4166667   0.0000000), wk =   0.0138889
        k(   45) = (  -0.3333333   0.4166667   0.0000000), wk =   0.0138889
        k(   46) = (   0.4166667  -0.0833333   0.0000000), wk =   0.0138889
        k(   47) = (  -0.3333333  -0.0833333   0.0000000), wk =   0.0138889
        k(   48) = (   0.4166667  -0.3333333   0.0000000), wk =   0.0138889
        k(   49) = (  -0.0833333   0.5000000   0.0000000), wk =   0.0138889
        k(   50) = (  -0.4166667   0.5000000   0.0000000), wk =   0.0138889
        k(   51) = (   0.5000000  -0.0833333   0.0000000), wk =   0.0138889
        k(   52) = (  -0.4166667  -0.0833333   0.0000000), wk =   0.0138889
        k(   53) = (   0.5000000  -0.4166667   0.0000000), wk =   0.0138889
        k(   54) = (  -0.1666667   0.3333333   0.0000000), wk =   0.0138889
        k(   55) = (   0.3333333  -0.1666667   0.0000000), wk =   0.0138889
        k(   56) = (  -0.1666667   0.4166667   0.0000000), wk =   0.0138889
        k(   57) = (  -0.2500000   0.4166667   0.0000000), wk =   0.0138889
        k(   58) = (   0.4166667  -0.1666667   0.0000000), wk =   0.0138889
        k(   59) = (  -0.2500000  -0.1666667   0.0000000), wk =   0.0138889
        k(   60) = (   0.4166667  -0.2500000   0.0000000), wk =   0.0138889
        k(   61) = (  -0.1666667   0.5000000   0.0000000), wk =   0.0138889
        k(   62) = (  -0.3333333   0.5000000   0.0000000), wk =   0.0138889
        k(   63) = (   0.5000000  -0.1666667   0.0000000), wk =   0.0138889
        k(   64) = (  -0.3333333  -0.1666667   0.0000000), wk =   0.0138889
        k(   65) = (   0.5000000  -0.3333333   0.0000000), wk =   0.0138889
        k(   66) = (  -0.4166667   0.5833333   0.0000000), wk =   0.0138889
        k(   67) = (   0.5833333  -0.1666667   0.0000000), wk =   0.0138889
        k(   68) = (  -0.2500000   0.5000000   0.0000000), wk =   0.0138889
        k(   69) = (   0.5000000  -0.2500000   0.0000000), wk =   0.0138889
        k(   70) = (  -0.2500000   0.5833333   0.0000000), wk =   0.0138889
        k(   71) = (  -0.3333333   0.5833333   0.0000000), wk =   0.0138889
        k(   72) = (   0.5833333  -0.2500000   0.0000000), wk =   0.0138889
        k(   73) = (  -0.3333333  -0.2500000   0.0000000), wk =   0.0138889
        k(   74) = (   0.5833333  -0.3333333   0.0000000), wk =   0.0138889
        k(   75) = (   0.0000000   0.0000000   0.0000000), wk =   0.0069444
        k(   76) = (   0.0000000   0.0833333   0.0000000), wk =   0.0138889
        k(   77) = (   0.0000000   0.1666667   0.0000000), wk =   0.0138889
        k(   78) = (   0.0000000   0.2500000   0.0000000), wk =   0.0138889
        k(   79) = (   0.0000000   0.3333333   0.0000000), wk =   0.0138889
        k(   80) = (   0.0000000   0.4166667   0.0000000), wk =   0.0138889
        k(   81) = (   0.0000000  -0.5000000   0.0000000), wk =   0.0069444
        k(   82) = (   0.0833333   0.0833333   0.0000000), wk =   0.0138889
        k(   83) = (   0.0833333   0.1666667   0.0000000), wk =   0.0138889
        k(   84) = (   0.0833333   0.2500000   0.0000000), wk =   0.0138889
        k(   85) = (   0.0833333   0.3333333   0.0000000), wk =   0.0138889
        k(   86) = (   0.0833333   0.4166667   0.0000000), wk =   0.0138889
        k(   87) = (   0.1666667   0.1666667   0.0000000), wk =   0.0138889
        k(   88) = (   0.1666667   0.2500000   0.0000000), wk =   0.0138889
        k(   89) = (   0.1666667   0.3333333   0.0000000), wk =   0.0138889
        k(   90) = (   0.1666667   0.4166667   0.0000000), wk =   0.0138889
        k(   91) = (   0.2500000   0.2500000   0.0000000), wk =   0.0138889
        k(   92) = (   0.2500000   0.3333333   0.0000000), wk =   0.0138889
        k(   93) = (   0.3333333   0.3333333   0.0000000), wk =   0.0138889
        k(   94) = (  -0.0833333   0.0833333   0.0000000), wk =   0.0138889
        k(   95) = (   0.0833333   0.0000000   0.0000000), wk =   0.0138889
        k(   96) = (  -0.1666667   0.1666667   0.0000000), wk =   0.0138889
        k(   97) = (   0.1666667   0.0000000   0.0000000), wk =   0.0138889
        k(   98) = (  -0.2500000   0.2500000   0.0000000), wk =   0.0138889
        k(   99) = (   0.2500000   0.0000000   0.0000000), wk =   0.0138889
        k(  100) = (  -0.3333333   0.3333333   0.0000000), wk =   0.0138889
        k(  101) = (   0.3333333   0.0000000   0.0000000), wk =   0.0138889
        k(  102) = (  -0.4166667   0.4166667   0.0000000), wk =   0.0138889
        k(  103) = (   0.4166667   0.0000000   0.0000000), wk =   0.0138889
        k(  104) = (   0.5000000  -0.5000000   0.0000000), wk =   0.0069444
        k(  105) = (  -0.5000000   0.0000000   0.0000000), wk =   0.0069444
        k(  106) = (  -0.0833333   0.1666667   0.0000000), wk =   0.0138889
        k(  107) = (   0.1666667  -0.0833333   0.0000000), wk =   0.0138889
        k(  108) = (  -0.0833333   0.2500000   0.0000000), wk =   0.0138889
        k(  109) = (  -0.1666667   0.2500000   0.0000000), wk =   0.0138889
        k(  110) = (   0.2500000  -0.0833333   0.0000000), wk =   0.0138889
        k(  111) = (  -0.1666667  -0.0833333   0.0000000), wk =   0.0138889
        k(  112) = (   0.2500000  -0.1666667   0.0000000), wk =   0.0138889
        k(  113) = (  -0.0833333   0.3333333   0.0000000), wk =   0.0138889
        k(  114) = (  -0.2500000   0.3333333   0.0000000), wk =   0.0138889
        k(  115) = (   0.3333333  -0.0833333   0.0000000), wk =   0.0138889
        k(  116) = (  -0.2500000  -0.0833333   0.0000000), wk =   0.0138889
        k(  117) = (   0.3333333  -0.2500000   0.0000000), wk =   0.0138889
        k(  118) = (  -0.0833333   0.4166667   0.0000000), wk =   0.0138889
        k(  119) = (  -0.3333333   0.4166667   0.0000000), wk =   0.0138889
        k(  120) = (   0.4166667  -0.0833333   0.0000000), wk =   0.0138889
        k(  121) = (  -0.3333333  -0.0833333   0.0000000), wk =   0.0138889
        k(  122) = (   0.4166667  -0.3333333   0.0000000), wk =   0.0138889
        k(  123) = (  -0.0833333   0.5000000   0.0000000), wk =   0.0138889
        k(  124) = (  -0.4166667   0.5000000   0.0000000), wk =   0.0138889
        k(  125) = (   0.5000000  -0.0833333   0.0000000), wk =   0.0138889
        k(  126) = (  -0.4166667  -0.0833333   0.0000000), wk =   0.0138889
        k(  127) = (   0.5000000  -0.4166667   0.0000000), wk =   0.0138889
        k(  128) = (  -0.1666667   0.3333333   0.0000000), wk =   0.0138889
        k(  129) = (   0.3333333  -0.1666667   0.0000000), wk =   0.0138889
        k(  130) = (  -0.1666667   0.4166667   0.0000000), wk =   0.0138889
        k(  131) = (  -0.2500000   0.4166667   0.0000000), wk =   0.0138889
        k(  132) = (   0.4166667  -0.1666667   0.0000000), wk =   0.0138889
        k(  133) = (  -0.2500000  -0.1666667   0.0000000), wk =   0.0138889
        k(  134) = (   0.4166667  -0.2500000   0.0000000), wk =   0.0138889
        k(  135) = (  -0.1666667   0.5000000   0.0000000), wk =   0.0138889
        k(  136) = (  -0.3333333   0.5000000   0.0000000), wk =   0.0138889
        k(  137) = (   0.5000000  -0.1666667   0.0000000), wk =   0.0138889
        k(  138) = (  -0.3333333  -0.1666667   0.0000000), wk =   0.0138889
        k(  139) = (   0.5000000  -0.3333333   0.0000000), wk =   0.0138889
        k(  140) = (  -0.4166667   0.5833333   0.0000000), wk =   0.0138889
        k(  141) = (   0.5833333  -0.1666667   0.0000000), wk =   0.0138889
        k(  142) = (  -0.2500000   0.5000000   0.0000000), wk =   0.0138889
        k(  143) = (   0.5000000  -0.2500000   0.0000000), wk =   0.0138889
        k(  144) = (  -0.2500000   0.5833333   0.0000000), wk =   0.0138889
        k(  145) = (  -0.3333333   0.5833333   0.0000000), wk =   0.0138889
        k(  146) = (   0.5833333  -0.2500000   0.0000000), wk =   0.0138889
        k(  147) = (  -0.3333333  -0.2500000   0.0000000), wk =   0.0138889
        k(  148) = (   0.5833333  -0.3333333   0.0000000), wk =   0.0138889

     Dense  grid:    96043 G-vectors     FFT dimensions: (  30,  30, 243)

     Smooth grid:    24369 G-vectors     FFT dimensions: (  20,  20, 160)

     Largest allocated arrays     est. size (Mb)     dimensions
        Kohn-Sham Wavefunctions         0.75 Mb     (    3054,   16)
        NL pseudopotentials             1.49 Mb     (    3054,   32)
        Each V/rho on FFT grid          6.67 Mb     (  218700,   2)
        Each G-vector array             0.73 Mb     (   96043)
        G-vector shells                 0.04 Mb     (    4763)
     Largest temporary arrays     est. size (Mb)     dimensions
        Auxiliary wavefunctions         2.98 Mb     (    3054,   64)
        Each subspace H/S matrix        0.06 Mb     (      64,   64)
        Each <psi_i|beta_j> matrix      0.01 Mb     (      32,   16)
        Arrays for rho mixing          26.70 Mb     (  218700,    8)

     Initial potential from superposition of free atoms

     starting charge   15.99979, renormalised to   16.00000

     negative rho (up, down):  2.663E-06 7.988E-06
     Starting wfc are   16 randomized atomic wfcs

     total cpu time spent up to now is        9.4 secs

     per-process dynamical memory:   163.4 Mb

     Self-consistent Calculation

     iteration #  1     ecut=    40.00 Ry     beta=0.30
     Davidson diagonalization with overlap
     ethr =  1.00E-02,  avg # of iterations =  6.0

     negative rho (up, down):  1.484E-06 4.883E-06

     Magnetic moment per site:
     atom:    1    charge:    1.6477    magn:   -0.5743    constr:    0.0000
     atom:    2    charge:    1.6477    magn:   -0.5743    constr:    0.0000
     atom:    3    charge:    1.6476    magn:   -0.5742    constr:    0.0000
     atom:    4    charge:    1.6476    magn:   -0.5742    constr:    0.0000

     total cpu time spent up to now is       47.0 secs

 ------ SPIN UP ------------


          k = 0.0000 0.0000 0.0000     band energies (ev):

   -21.7391 -21.6486  -9.3910  -8.6853  -5.8624  -5.8591  -5.8542  -5.8541
     3.2545   3.8230   4.6523   5.7375   5.8646   5.8671   5.8817   5.8887

     occupation numbers 
     1.0000   1.0000   1.0000   1.0000   1.0000   1.0000   1.0000   1.0000
     0.0000   0.0000   0.0000   0.0000   0.0000   0.0000   0.0000   0.0000

          k = 0.0000 0.0962 0.0000     band energies (ev):

   -21.5789 -21.4894  -9.1966  -8.4960  -6.4685  -6.4571  -6.1762  -6.1707
     3.4694   4.0425   4.8829   5.9005   5.9646   6.0539   6.0998   6.5312

     occupation numbers 
     1.0000   1.0000   1.0000   1.0000   1.0000   1.0000   1.0000   1.0000
     0.0000   0.0000   0.0000   0.0000   0.0000   0.0000   0.0000   0.0000

          k = 0.0000 0.1925 0.0000     band energies (ev):

   -21.1001 -21.0135  -8.6201  -8.0110  -7.9919  -7.9342  -6.9266  -6.9203
     4.1182   4.7077   5.8747   6.0172   6.1330   6.7691   7.2508   7.4425

     occupation numbers 
     1.0000   1.0000   1.0000   1.0000   1.0000   1.0000   1.0000   1.0000
     0.0000   0.0000   0.0000   0.0000   0.0000   0.0000   0.0000   0.0000

          k = 0.0000 0.2887 0.0000     band energies (ev):

   -20.3090 -20.2268 -10.0107  -9.9816  -7.7691  -7.7620  -7.6802  -7.0217
     5.1531   5.2268   5.4779   5.7617   5.8403   5.9390   6.6943   7.6766

     occupation numbers 
     1.0000   1.0000   1.0000   1.0000   1.0000   1.0000   1.0000   1.0000
     0.0000   0.0000   0.0000   0.0000   0.0000   0.0000   0.0000   0.0000

          k = 0.0000 0.3849 0.0000     band energies (ev):

   -19.2179 -19.1418 -12.1277 -12.0887  -8.4765  -8.4690  -6.4286  -5.8123
     2.9787   3.3826   5.5067   5.5850   6.7329   7.3637   8.2357   9.0937

     occupation numbers 
     1.0000   1.0000   1.0000   1.0000   1.0000   1.0000   1.0000   1.0000
     0.0000   0.0000   0.0000   0.0000   0.0000   0.0000   0.0000   0.0000

          k = 0.0000 0.4811 0.0000     band energies (ev):

   -17.8597 -17.7905 -14.1554 -14.1070  -8.9350  -8.9268  -5.0283  -4.4768
     0.8904   1.4114   5.3260   5.3942   8.5968   9.3091  10.2968  11.2980

     occupation numbers 
     1.0000   1.0000   1.0000   1.0000   1.0000   1.0000   1.0000   1.0000
     0.0000   0.0000   0.0000   0.0000   0.0000   0.0000   0.0000   0.0000

          k = 0.0000-0.5774 0.0000     band energies (ev):

   -16.6424 -16.5773 -15.6039 -15.5502  -9.0920  -9.0841  -4.2012  -3.7087
    -0.1802   0.4177   5.2557   5.3250  10.7077  10.8233  11.6135  11.7671

     occupation numbers 
     1.0000   1.0000   1.0000   1.0000   1.0000   1.0000   1.0000   1.0000
     0.0000   0.0000   0.0000   0.0000   0.0000   0.0000   0.0000   0.0000

          k = 0.0833 0.1443 0.0000     band energies (ev):

   -21.2594 -21.1718  -8.8110  -8.1204  -7.4436  -7.4286  -6.8107  -6.8015
     3.9004   4.4847   5.3240   6.2194   6.2861   6.4576   6.5537   7.4178

     occupation numbers 
     1.0000   1.0000   1.0000   1.0000   1.0000   1.0000   1.0000   1.0000
     0.0000   0.0000   0.0000   0.0000   0.0000   0.0000   0.0000   0.0000

          k = 0.0833 0.2406 0.0000     band energies (ev):

   -20.6244 -20.5405  -9.0686  -9.0455  -8.0518  -7.7555  -7.7440  -7.3820
     4.7627   5.3632   6.0401   6.2739   6.4542   6.5282   6.8121   7.4192

     occupation numbers 
     1.0000   1.0000   1.0000   1.0000   1.0000   1.0000   1.0000   1.0000
     0.0000   0.0000   0.0000   0.0000   0.0000   0.0000   0.0000   0.0000

          k = 0.0833 0.3368 0.0000     band energies (ev):

   -19.6832 -19.6046 -11.0512 -11.0182  -8.6076  -8.5939  -6.9495  -6.3140
     3.9674   4.2904   5.9695   6.3500   6.4180   6.7212   7.6824   8.6750

     occupation numbers 
     1.0000   1.0000   1.0000   1.0000   1.0000   1.0000   1.0000   1.0000
     0.0000   0.0000   0.0000   0.0000   0.0000   0.0000   0.0000   0.0000

          k = 0.0833 0.4330 0.0000     band energies (ev):

   -18.4554 -18.3834 -13.0947 -13.0517  -9.2222  -9.2072  -5.5895  -5.0063
     1.8133   2.2495   6.0778   6.1559   7.7732   8.4614   9.3113  10.0215

     occupation numbers 
     1.0000   1.0000   1.0000   1.0000   1.0000   1.0000   1.0000   1.0000
     0.0000   0.0000   0.0000   0.0000   0.0000   0.0000   0.0000   0.0000

          k = 0.0833 0.5292 0.0000     band energies (ev):

   -17.0201 -16.9548 -14.9684 -14.9170  -9.5411  -9.5256  -4.3040  -3.7935
     0.0864   0.6295   5.9468   6.0214   9.7855  10.5411  11.1169  11.8951

     occupation numbers 
     1.0000   1.0000   1.0000   1.0000   1.0000   1.0000   1.0000   1.0000
     0.0000   0.0000   0.0000   0.0000   0.0000   0.0000   0.0000   0.0000

          k = 0.1667 0.2887 0.0000     band energies (ev):

   -19.8394 -19.7599 -10.3508 -10.3245  -9.0363  -9.0181  -7.1252  -6.4844
     4.3927   4.6602   5.8393   6.4861   7.5833   7.7216   7.8838   9.1279

     occupation numbers 
     1.0000   1.0000   1.0000   1.0000   1.0000   1.0000   1.0000   1.0000
     0.0000   0.0000   0.0000   0.0000   0.0000   0.0000   0.0000   0.0000

          k = 0.1667 0.3849 0.0000     band energies (ev):

   -18.7597 -18.6863 -12.0085 -11.9732 -10.0492 -10.0265  -5.8890  -5.2907
     2.5016   2.8318   7.3062   7.8891   7.9890   8.0964  10.4353  10.6446

     occupation numbers 
     1.0000   1.0000   1.0000   1.0000   1.0000   1.0000   1.0000   1.0000
     0.0000   0.0000   0.0000   0.0000   0.0000   0.0000   0.0000   0.0000

          k = 0.1667 0.4811 0.0000     band energies (ev):

   -17.4223 -17.3559 -13.8458 -13.8003 -10.6098 -10.5845  -4.4849  -3.9473
     0.6349   1.0538   7.7263   7.8512   9.2016   9.8308  11.8720  12.5386

     occupation numbers 
     1.0000   1.0000   1.0000   1.0000   1.0000   1.0000   1.0000   1.0000
     0.0000   0.0000   0.0000   0.0000   0.0000   0.0000   0.0000   0.0000

          k = 0.1667 0.5774 0.0000     band energies (ev):

   -16.2344 -16.1721 -15.2220 -15.1711 -10.7902 -10.7641  -3.6111  -3.1274
    -0.4091   0.0789   7.6567   7.7820  10.3070  11.0123  11.3130  11.4888

     occupation numbers 
     1.0000   1.0000   1.0000   1.0000   1.0000   1.0000   1.0000   0.0000
     0.0000   0.0000   0.0000   0.0000   0.0000   0.0000   0.0000   0.0000

          k = 0.2500 0.4330 0.0000     band energies (ev):

   -17.5654 -17.4987 -13.0163 -12.9789 -11.4535 -11.4256  -4.5642  -4.0199
     0.9205   1.2694   8.9060   9.5350   9.9036  10.1057  10.2488  10.4718

     occupation numbers 
     1.0000   1.0000   1.0000   1.0000   1.0000   1.0000   1.0000   1.0000
     0.0000   0.0000   0.0000   0.0000   0.0000   0.0000   0.0000   0.0000

          k = 0.2500 0.5292 0.0000     band energies (ev):

   -16.1889 -16.1290 -14.3814 -14.3354 -12.1380 -12.1056  -3.2036  -2.7173
    -0.5675  -0.1747   9.4043   9.8267  10.1239  10.7528  10.8236  11.7152

     occupation numbers 
     1.0000   1.0000   1.0000   1.0000   1.0000   1.0000   0.0000   0.0000
     0.0000   0.0000   0.0000   0.0000   0.0000   0.0000   0.0000   0.0000

          k = 0.3333 0.5774 0.0000     band energies (ev):

   -15.0163 -15.0140 -14.9659 -14.9622 -12.9779 -12.9435  -1.8720  -1.8487
    -1.4450  -1.4170   9.0186  10.6036  11.0455  11.1786  11.8092  11.8498

     occupation numbers 
     1.0000   1.0000   1.0000   1.0000   1.0000   1.0000   0.0000   0.0000
     0.0000   0.0000   0.0000   0.0000   0.0000   0.0000   0.0000   0.0000

          k =-0.0833 0.0481 0.0000     band energies (ev):

   -21.5789 -21.4894  -9.1965  -8.4961  -6.4670  -6.4563  -6.1788  -6.1704
     3.4695   4.0435   4.9359   5.9199   5.9680   6.0581   6.5293   6.5511

     occupation numbers 
     1.0000   1.0000   1.0000   1.0000   1.0000   1.0000   1.0000   1.0000
     0.0000   0.0000   0.0000   0.0000   0.0000   0.0000   0.0000   0.0000

          k = 0.0833 0.0481 0.0000     band energies (ev):

   -21.5789 -21.4894  -9.1966  -8.4960  -6.4670  -6.4563  -6.1788  -6.1704
     3.4698   4.0456   4.9226   5.9140   5.9760   6.0529   6.5292   6.5512

     occupation numbers 
     1.0000   1.0000   1.0000   1.0000   1.0000   1.0000   1.0000   1.0000
     0.0000   0.0000   0.0000   0.0000   0.0000   0.0000   0.0000   0.0000

          k =-0.1667 0.0962 0.0000     band energies (ev):

   -21.1002 -21.0134  -8.6199  -8.0102  -7.9909  -7.9346  -6.9295  -6.9193
     4.1136   4.7063   5.7521   6.0130   6.0434   6.7186   7.1955   7.3708

     occupation numbers 
     1.0000   1.0000   1.0000   1.0000   1.0000   1.0000   1.0000   1.0000
     0.0000   0.0000   0.0000   0.0000   0.0000   0.0000   0.0000   0.0000

          k = 0.1667 0.0962 0.0000     band energies (ev):

   -21.1001 -21.0135  -8.6198  -8.0102  -7.9909  -7.9346  -6.9294  -6.9193
     4.1194   4.7054   5.8442   6.0176   6.1090   6.7454   7.2379   7.4498

     occupation numbers 
     1.0000   1.0000   1.0000   1.0000   1.0000   1.0000   1.0000   1.0000
     0.0000   0.0000   0.0000   0.0000   0.0000   0.0000   0.0000   0.0000

          k =-0.2500 0.1443 0.0000     band energies (ev):

   -20.3089 -20.2268 -10.0102  -9.9809  -7.7722  -7.7605  -7.6795  -7.0225
     5.1525   5.2211   5.4833   5.7693   5.8363   5.9394   6.7602   7.7632

     occupation numbers 
     1.0000   1.0000   1.0000   1.0000   1.0000   1.0000   1.0000   1.0000
     0.0000   0.0000   0.0000   0.0000   0.0000   0.0000   0.0000   0.0000

          k = 0.2500 0.1443 0.0000     band energies (ev):

   -20.3089 -20.2268 -10.0102  -9.9808  -7.7722  -7.7605  -7.6794  -7.0226
     5.1522   5.2212   5.4851   5.7779   5.8371   5.9547   6.6930   7.6558

     occupation numbers 
     1.0000   1.0000   1.0000   1.0000   1.0000   1.0000   1.0000   1.0000
     0.0000   0.0000   0.0000   0.0000   0.0000   0.0000   0.0000   0.0000

          k =-0.3333 0.1925 0.0000     band energies (ev):

   -19.2178 -19.1419 -12.1273 -12.0881  -8.4799  -8.4672  -6.4262  -5.8155
     2.9818   3.3817   5.4906   5.5998   6.7332   7.3977   8.2342   9.0848

     occupation numbers 
     1.0000   1.0000   1.0000   1.0000   1.0000   1.0000   1.0000   1.0000
     0.0000   0.0000   0.0000   0.0000   0.0000   0.0000   0.0000   0.0000

          k = 0.3333 0.1925 0.0000     band energies (ev):

   -19.2178 -19.1419 -12.1273 -12.0881  -8.4798  -8.4673  -6.4262  -5.8155
     2.9815   3.3815   5.4906   5.5998   6.7332   7.3663   8.2518   9.1422

     occupation numbers 
     1.0000   1.0000   1.0000   1.0000   1.0000   1.0000   1.0000   1.0000
     0.0000   0.0000   0.0000   0.0000   0.0000   0.0000   0.0000   0.0000

          k =-0.4167 0.2406 0.0000     band energies (ev):

   -17.8593 -17.7909 -14.1549 -14.1066  -8.9379  -8.9249  -5.0187  -4.4894
     0.9058   1.4004   5.3059   5.4144   8.5973   9.3046  10.3498  11.3651

     occupation numbers 
     1.0000   1.0000   1.0000   1.0000   1.0000   1.0000   1.0000   1.0000
     0.0000   0.0000   0.0000   0.0000   0.0000   0.0000   0.0000   0.0000

          k = 0.4167 0.2406 0.0000     band energies (ev):

   -17.8594 -17.7909 -14.1550 -14.1066  -8.9378  -8.9249  -5.0187  -4.4894
     0.9057   1.4003   5.3059   5.4143   8.5955   9.3106  10.2359  11.0172

     occupation numbers 
     1.0000   1.0000   1.0000   1.0000   1.0000   1.0000   1.0000   1.0000
     0.0000   0.0000   0.0000   0.0000   0.0000   0.0000   0.0000   0.0000

          k = 0.5000-0.2887 0.0000     band energies (ev):

   -16.6388 -16.5820 -15.5993 -15.5524  -9.0952  -9.0821  -4.1741  -3.7450
    -0.1449   0.3928   5.2396   5.3459  10.7098  10.8075  11.5599  11.7257

     occupation numbers 
     1.0000   1.0000   1.0000   1.0000   1.0000   1.0000   1.0000   1.0000
     0.0000   0.0000   0.0000   0.0000   0.0000   0.0000   0.0000   0.0000

          k =-0.5000-0.2887 0.0000     band energies (ev):

   -16.6388 -16.5820 -15.5993 -15.5525  -9.0952  -9.0821  -4.1741  -3.7450
    -0.1450   0.3928   5.2399   5.3459  10.7562  10.8319  11.5229  11.7014

     occupation numbers 
     1.0000   1.0000   1.0000   1.0000   1.0000   1.0000   1.0000   1.0000
     0.0000   0.0000   0.0000   0.0000   0.0000   0.0000   0.0000   0.0000

          k =-0.0833 0.1443 0.0000     band energies (ev):

   -21.2594 -21.1718  -8.8112  -8.1205  -7.4436  -7.4286  -6.8107  -6.8015
     3.9001   4.4846   5.3254   6.2185   6.2854   6.4563   6.5498   7.4178

     occupation numbers 
     1.0000   1.0000   1.0000   1.0000   1.0000   1.0000   1.0000   1.0000
     0.0000   0.0000   0.0000   0.0000   0.0000   0.0000   0.0000   0.0000

          k = 0.1667-0.0000 0.0000     band energies (ev):

   -21.2594 -21.1718  -8.8108  -8.1206  -7.4433  -7.4267  -6.8129  -6.8016
     3.9011   4.5122   5.3814   6.2252   6.2959   6.4688   7.4106   7.4464

     occupation numbers 
     1.0000   1.0000   1.0000   1.0000   1.0000   1.0000   1.0000   1.0000
     0.0000   0.0000   0.0000   0.0000   0.0000   0.0000   0.0000   0.0000

          k =-0.0833 0.2406 0.0000     band energies (ev):

   -20.6244 -20.5405  -9.0685  -9.0455  -8.0518  -7.7555  -7.7440  -7.3821
     4.7650   5.3663   6.0406   6.2739   6.4433   6.5291   6.8410   7.4408

     occupation numbers 
     1.0000   1.0000   1.0000   1.0000   1.0000   1.0000   1.0000   1.0000
     0.0000   0.0000   0.0000   0.0000   0.0000   0.0000   0.0000   0.0000

          k =-0.1667 0.1925 0.0000     band energies (ev):

   -20.6244 -20.5405  -9.0680  -9.0451  -8.0516  -7.7570  -7.7436  -7.3824
     4.7647   5.3624   6.0384   6.2721   6.4093   6.5371   6.7029   7.3685

     occupation numbers 
     1.0000   1.0000   1.0000   1.0000   1.0000   1.0000   1.0000   1.0000
     0.0000   0.0000   0.0000   0.0000   0.0000   0.0000   0.0000   0.0000

          k = 0.2500 0.0481 0.0000     band energies (ev):

   -20.6244 -20.5405  -9.0683  -9.0438  -8.0514  -7.7579  -7.7437  -7.3827
     4.7682   5.3656   6.0292   6.2870   6.4453   6.5309   6.8347   7.4073

     occupation numbers 
     1.0000   1.0000   1.0000   1.0000   1.0000   1.0000   1.0000   1.0000
     0.0000   0.0000   0.0000   0.0000   0.0000   0.0000   0.0000   0.0000

          k =-0.1667-0.1925 0.0000     band energies (ev):

   -20.6244 -20.5405  -9.0680  -9.0451  -8.0515  -7.7570  -7.7436  -7.3824
     4.7581   5.3662   6.0369   6.2733   6.3787   6.5343   6.6071   7.3397

     occupation numbers 
     1.0000   1.0000   1.0000   1.0000   1.0000   1.0000   1.0000   1.0000
     0.0000   0.0000   0.0000   0.0000   0.0000   0.0000   0.0000   0.0000

          k = 0.2500-0.0481 0.0000     band energies (ev):

   -20.6244 -20.5405  -9.0683  -9.0437  -8.0514  -7.7579  -7.7438  -7.3825
     4.7591   5.3619   6.0282   6.2820   6.3328   6.5184   6.5942   7.4231

     occupation numbers 
     1.0000   1.0000   1.0000   1.0000   1.0000   1.0000   1.0000   1.0000
     0.0000   0.0000   0.0000   0.0000   0.0000   0.0000   0.0000   0.0000

          k =-0.0833 0.3368 0.0000     band energies (ev):

   -19.6832 -19.6046 -11.0512 -11.0182  -8.6076  -8.5939  -6.9495  -6.3140
     3.9675   4.2906   5.9704   6.3500   6.4179   6.7234   7.6518   8.5971

     occupation numbers 
     1.0000   1.0000   1.0000   1.0000   1.0000   1.0000   1.0000   1.0000
     0.0000   0.0000   0.0000   0.0000   0.0000   0.0000   0.0000   0.0000

          k =-0.2500 0.2406 0.0000     band energies (ev):

   -19.6831 -19.6046 -11.0508 -11.0177  -8.6094  -8.5932  -6.9485  -6.3153
     3.9679   4.2912   5.9669   6.3604   6.4118   6.7277   7.6086   8.4817

     occupation numbers 
     1.0000   1.0000   1.0000   1.0000   1.0000   1.0000   1.0000   1.0000
     0.0000   0.0000   0.0000   0.0000   0.0000   0.0000   0.0000   0.0000

          k = 0.3333 0.0962 0.0000     band energies (ev):

   -19.6831 -19.6046 -11.0511 -11.0170  -8.6096  -8.5934  -6.9482  -6.3158
     3.9591   4.3014   5.9688   6.3489   6.4209   6.7230   7.7385   8.6909

     occupation numbers 
     1.0000   1.0000   1.0000   1.0000   1.0000   1.0000   1.0000   1.0000
     0.0000   0.0000   0.0000   0.0000   0.0000   0.0000   0.0000   0.0000

          k =-0.2500-0.2406 0.0000     band energies (ev):

   -19.6831 -19.6046 -11.0508 -11.0176  -8.6093  -8.5933  -6.9485  -6.3153
     3.9677   4.2912   5.9678   6.3607   6.4117   6.7342   7.5912   8.4691

     occupation numbers 
     1.0000   1.0000   1.0000   1.0000   1.0000   1.0000   1.0000   1.0000
     0.0000   0.0000   0.0000   0.0000   0.0000   0.0000   0.0000   0.0000

          k = 0.3333-0.0962 0.0000     band energies (ev):

   -19.6831 -19.6046 -11.0511 -11.0170  -8.6096  -8.5934  -6.9482  -6.3158
     3.9587   4.3014   5.9677   6.3486   6.4207   6.7215   7.7496   8.7376

     occupation numbers 
     1.0000   1.0000   1.0000   1.0000   1.0000   1.0000   1.0000   1.0000
     0.0000   0.0000   0.0000   0.0000   0.0000   0.0000   0.0000   0.0000

          k =-0.0833 0.4330 0.0000     band energies (ev):

   -18.4554 -18.3834 -13.0947 -13.0517  -9.2222  -9.2072  -5.5895  -5.0063
     1.8130   2.2495   6.0777   6.1560   7.7712   8.4566   9.3209  10.0242

     occupation numbers 
     1.0000   1.0000   1.0000   1.0000   1.0000   1.0000   1.0000   1.0000
     0.0000   0.0000   0.0000   0.0000   0.0000   0.0000   0.0000   0.0000

          k =-0.3333 0.2887 0.0000     band energies (ev):

   -18.4552 -18.3836 -13.0943 -13.0513  -9.2239  -9.2066  -5.5853  -5.0118
     1.8203   2.2446   6.0600   6.1746   7.7732   8.4542   9.3282  10.0634

     occupation numbers 
     1.0000   1.0000   1.0000   1.0000   1.0000   1.0000   1.0000   1.0000
     0.0000   0.0000   0.0000   0.0000   0.0000   0.0000   0.0000   0.0000

          k = 0.4167 0.1443 0.0000     band energies (ev):

   -18.4552 -18.3836 -13.0945 -13.0509  -9.2240  -9.2067  -5.5849  -5.0123
     1.8141   2.2521   6.0599   6.1735   7.7747   8.4406   9.3463  10.1279

     occupation numbers 
     1.0000   1.0000   1.0000   1.0000   1.0000   1.0000   1.0000   1.0000
     0.0000   0.0000   0.0000   0.0000   0.0000   0.0000   0.0000   0.0000

          k =-0.3333-0.2887 0.0000     band energies (ev):

   -18.4552 -18.3836 -13.0943 -13.0513  -9.2239  -9.2066  -5.5853  -5.0118
     1.8205   2.2450   6.0600   6.1745   7.7746   8.4423   9.3600  10.1387

     occupation numbers 
     1.0000   1.0000   1.0000   1.0000   1.0000   1.0000   1.0000   1.0000
     0.0000   0.0000   0.0000   0.0000   0.0000   0.0000   0.0000   0.0000

          k = 0.4167-0.1443 0.0000     band energies (ev):

   -18.4552 -18.3836 -13.0945 -13.0509  -9.2240  -9.2067  -5.5849  -5.0123
     1.8140   2.2521   6.0600   6.1735   7.7763   8.4427   9.3339  10.0725

     occupation numbers 
     1.0000   1.0000   1.0000   1.0000   1.0000   1.0000   1.0000   1.0000
     0.0000   0.0000   0.0000   0.0000   0.0000   0.0000   0.0000   0.0000

          k =-0.0833 0.5292 0.0000     band energies (ev):

   -17.0201 -16.9548 -14.9684 -14.9170  -9.5410  -9.5255  -4.3040  -3.7935
     0.0861   0.6296   5.9468   6.0214   9.7974  10.5409  11.1145  11.8760

     occupation numbers 
     1.0000   1.0000   1.0000   1.0000   1.0000   1.0000   1.0000   1.0000
     0.0000   0.0000   0.0000   0.0000   0.0000   0.0000   0.0000   0.0000

          k =-0.4167 0.3368 0.0000     band energies (ev):

   -17.0192 -16.9561 -14.9673 -14.9170  -9.5427  -9.5250  -4.2852  -3.8186
     0.1106   0.6130   5.9271   6.0414   9.7859  10.5344  11.1623  11.8883

     occupation numbers 
     1.0000   1.0000   1.0000   1.0000   1.0000   1.0000   1.0000   1.0000
     0.0000   0.0000   0.0000   0.0000   0.0000   0.0000   0.0000   0.0000

          k = 0.5000 0.1925 0.0000     band energies (ev):

   -17.0191 -16.9561 -14.9674 -14.9168  -9.5428  -9.5250  -4.2851  -3.8186
     0.1074   0.6164   5.9270   6.0413   9.7884  10.5149  11.1655  11.8704

     occupation numbers 
     1.0000   1.0000   1.0000   1.0000   1.0000   1.0000   1.0000   1.0000
     0.0000   0.0000   0.0000   0.0000   0.0000   0.0000   0.0000   0.0000

          k =-0.4167-0.3368 0.0000     band energies (ev):

   -17.0191 -16.9561 -14.9673 -14.9170  -9.5427  -9.5249  -4.2852  -3.8185
     0.1108   0.6130   5.9271   6.0414   9.7926  10.5405  11.1127  11.8583

     occupation numbers 
     1.0000   1.0000   1.0000   1.0000   1.0000   1.0000   1.0000   1.0000
     0.0000   0.0000   0.0000   0.0000   0.0000   0.0000   0.0000   0.0000

          k = 0.5000-0.1925 0.0000     band energies (ev):

   -17.0191 -16.9561 -14.9674 -14.9168  -9.5428  -9.5249  -4.2851  -3.8186
     0.1073   0.6163   5.9270   6.0412   9.7873  10.5248  11.1235  11.8511

     occupation numbers 
     1.0000   1.0000   1.0000   1.0000   1.0000   1.0000   1.0000   1.0000
     0.0000   0.0000   0.0000   0.0000   0.0000   0.0000   0.0000   0.0000

          k =-0.1667 0.2887 0.0000     band energies (ev):

   -19.8394 -19.7599 -10.3508 -10.3246  -9.0363  -9.0181  -7.1252  -6.4843
     4.3926   4.6601   5.8466   6.4929   7.5392   7.7220   7.8335   9.1260

     occupation numbers 
     1.0000   1.0000   1.0000   1.0000   1.0000   1.0000   1.0000   1.0000
     0.0000   0.0000   0.0000   0.0000   0.0000   0.0000   0.0000   0.0000

          k = 0.3333-0.0000 0.0000     band energies (ev):

   -19.8393 -19.7599 -10.3519 -10.3218  -9.0386  -9.0176  -7.1246  -6.4853
     4.3746   4.6806   5.8467   6.4849   7.5849   7.7160   7.9356   9.1217

     occupation numbers 
     1.0000   1.0000   1.0000   1.0000   1.0000   1.0000   1.0000   1.0000
     0.0000   0.0000   0.0000   0.0000   0.0000   0.0000   0.0000   0.0000

          k =-0.1667 0.3849 0.0000     band energies (ev):

   -18.7597 -18.6863 -12.0085 -11.9732 -10.0492 -10.0265  -5.8890  -5.2907
     2.5012   2.8317   7.3173   7.8957   7.9888   8.1016  10.4449  10.6691

     occupation numbers 
     1.0000   1.0000   1.0000   1.0000   1.0000   1.0000   1.0000   1.0000
     0.0000   0.0000   0.0000   0.0000   0.0000   0.0000   0.0000   0.0000

          k =-0.2500 0.3368 0.0000     band energies (ev):

   -18.7597 -18.6864 -12.0082 -11.9728 -10.0499 -10.0266  -5.8878  -5.2922
     2.5017   2.8326   7.3026   7.9257   7.9638   8.1093  10.4948  10.6399

     occupation numbers 
     1.0000   1.0000   1.0000   1.0000   1.0000   1.0000   1.0000   1.0000
     0.0000   0.0000   0.0000   0.0000   0.0000   0.0000   0.0000   0.0000

          k = 0.4167 0.0481 0.0000     band energies (ev):

   -18.7596 -18.6864 -12.0091 -11.9711 -10.0512 -10.0262  -5.8867  -5.2935
     2.4834   2.8528   7.3241   7.8803   8.0011   8.1017  10.5249  10.6621

     occupation numbers 
     1.0000   1.0000   1.0000   1.0000   1.0000   1.0000   1.0000   1.0000
     0.0000   0.0000   0.0000   0.0000   0.0000   0.0000   0.0000   0.0000

          k =-0.2500-0.3368 0.0000     band energies (ev):

   -18.7598 -18.6864 -12.0082 -11.9728 -10.0500 -10.0266  -5.8879  -5.2922
     2.5003   2.8323   7.2870   7.9137   7.9556   8.1038   8.9898  10.5391

     occupation numbers 
     1.0000   1.0000   1.0000   1.0000   1.0000   1.0000   1.0000   1.0000
     0.0000   0.0000   0.0000   0.0000   0.0000   0.0000   0.0000   0.0000

          k = 0.4167-0.0481 0.0000     band energies (ev):

   -18.7597 -18.6864 -12.0091 -11.9711 -10.0512 -10.0262  -5.8868  -5.2936
     2.4823   2.8526   7.2871   7.8856   7.9870   8.1080   9.0070  10.5305

     occupation numbers 
     1.0000   1.0000   1.0000   1.0000   1.0000   1.0000   1.0000   1.0000
     0.0000   0.0000   0.0000   0.0000   0.0000   0.0000   0.0000   0.0000

          k =-0.1667 0.4811 0.0000     band energies (ev):

   -17.4223 -17.3559 -13.8458 -13.8003 -10.6098 -10.5845  -4.4849  -3.9472
     0.6351   1.0538   7.7258   7.8512   9.1832   9.8580  11.8770  12.5812

     occupation numbers 
     1.0000   1.0000   1.0000   1.0000   1.0000   1.0000   1.0000   1.0000
     0.0000   0.0000   0.0000   0.0000   0.0000   0.0000   0.0000   0.0000

          k =-0.3333 0.3849 0.0000     band energies (ev):

   -17.4220 -17.3562 -13.8453 -13.8000 -10.6107 -10.5846  -4.4773  -3.9573
     0.6392   1.0509   7.7094   7.8698   9.1678   9.8510  10.1597  11.7857

     occupation numbers 
     1.0000   1.0000   1.0000   1.0000   1.0000   1.0000   1.0000   1.0000
     0.0000   0.0000   0.0000   0.0000   0.0000   0.0000   0.0000   0.0000

          k = 0.5000 0.0962 0.0000     band energies (ev):

   -17.4220 -17.3563 -13.8458 -13.7992 -10.6111 -10.5845  -4.4763  -3.9583
     0.6274   1.0664   7.7098   7.8669   9.1934   9.8212  11.8831  12.6030

     occupation numbers 
     1.0000   1.0000   1.0000   1.0000   1.0000   1.0000   1.0000   1.0000
     0.0000   0.0000   0.0000   0.0000   0.0000   0.0000   0.0000   0.0000

          k =-0.3333-0.3849 0.0000     band energies (ev):

   -17.4220 -17.3562 -13.8453 -13.8000 -10.6107 -10.5846  -4.4773  -3.9573
     0.6413   1.0513   7.7103   7.8696   9.1827   9.8413  11.8608  12.5907

     occupation numbers 
     1.0000   1.0000   1.0000   1.0000   1.0000   1.0000   1.0000   1.0000
     0.0000   0.0000   0.0000   0.0000   0.0000   0.0000   0.0000   0.0000

          k = 0.5000-0.0962 0.0000     band energies (ev):

   -17.4220 -17.3563 -13.8459 -13.7992 -10.6111 -10.5845  -4.4763  -3.9583
     0.6257   1.0659   7.7090   7.8669   9.1683   9.8244  10.2227  11.8785

     occupation numbers 
     1.0000   1.0000   1.0000   1.0000   1.0000   1.0000   1.0000   1.0000
     0.0000   0.0000   0.0000   0.0000   0.0000   0.0000   0.0000   0.0000

          k =-0.4167 0.4330 0.0000     band energies (ev):

   -16.2310 -16.1767 -15.2183 -15.1728 -10.7912 -10.7642  -3.5847  -3.1634
    -0.3904   0.0720   7.6403   7.7994  10.3015  10.9909  11.3802  11.4729

     occupation numbers 
     1.0000   1.0000   1.0000   1.0000   1.0000   1.0000   0.9998   0.0000
     0.0000   0.0000   0.0000   0.0000   0.0000   0.0000   0.0000   0.0000

          k = 0.5833 0.1443 0.0000     band energies (ev):

   -16.2310 -16.1767 -15.2183 -15.1728 -10.7912 -10.7642  -3.5847  -3.1634
    -0.3904   0.0719   7.6402   7.7993  10.3091  10.9855  11.3786  11.4898

     occupation numbers 
     1.0000   1.0000   1.0000   1.0000   1.0000   1.0000   1.0002   0.0000
     0.0000   0.0000   0.0000   0.0000   0.0000   0.0000   0.0000   0.0000

          k =-0.2500 0.4330 0.0000     band energies (ev):

   -17.5654 -17.4987 -13.0164 -12.9789 -11.4535 -11.4257  -4.5642  -4.0200
     0.9205   1.2693   8.9216   9.5417   9.9147  10.1031  10.2462  10.4697

     occupation numbers 
     1.0000   1.0000   1.0000   1.0000   1.0000   1.0000   1.0000   1.0000
     0.0000   0.0000   0.0000   0.0000   0.0000   0.0000   0.0000   0.0000

          k = 0.5000 0.0000 0.0000     band energies (ev):

   -17.5652 -17.4988 -13.0184 -12.9755 -11.4562 -11.4244  -4.5609  -4.0239
     0.8968   1.2964   8.9025   9.5117   9.9121  10.1445  10.2210  10.4879

     occupation numbers 
     1.0000   1.0000   1.0000   1.0000   1.0000   1.0000   1.0000   1.0000
     0.0000   0.0000   0.0000   0.0000   0.0000   0.0000   0.0000   0.0000

          k =-0.2500 0.5292 0.0000     band energies (ev):

   -16.1889 -16.1290 -14.3814 -14.3354 -12.1381 -12.1056  -3.2036  -2.7173
    -0.5675  -0.1746   9.4091   9.8274  10.1260  10.7575  10.8265  11.7251

     occupation numbers 
     1.0000   1.0000   1.0000   1.0000   1.0000   1.0000   0.0000   0.0000
     0.0000   0.0000   0.0000   0.0000   0.0000   0.0000   0.0000   0.0000

          k =-0.3333 0.4811 0.0000     band energies (ev):

   -16.1882 -16.1299 -14.3807 -14.3352 -12.1387 -12.1057  -3.1910  -2.7349
    -0.5632  -0.1725   9.3837   9.8305  10.1118  10.6660  10.8974  11.6859

     occupation numbers 
     1.0000   1.0000   1.0000   1.0000   1.0000   1.0000   0.0000   0.0000
     0.0000   0.0000   0.0000   0.0000   0.0000   0.0000   0.0000   0.0000

          k = 0.5833 0.0481 0.0000     band energies (ev):

   -16.1881 -16.1301 -14.3822 -14.3332 -12.1397 -12.1051  -3.1890  -2.7361
    -0.5839  -0.1515   9.3835   9.8312  10.1161  10.6678  10.9291  11.6857

     occupation numbers 
     1.0000   1.0000   1.0000   1.0000   1.0000   1.0000   0.0000   0.0000
     0.0000   0.0000   0.0000   0.0000   0.0000   0.0000   0.0000   0.0000

          k =-0.3333-0.4811 0.0000     band energies (ev):

   -16.1883 -16.1299 -14.3807 -14.3352 -12.1387 -12.1057  -3.1910  -2.7349
    -0.5632  -0.1725   9.3835   9.8302  10.1120  10.6702  10.9003  11.6929

     occupation numbers 
     1.0000   1.0000   1.0000   1.0000   1.0000   1.0000   0.0000   0.0000
     0.0000   0.0000   0.0000   0.0000   0.0000   0.0000   0.0000   0.0000

          k = 0.5833-0.0481 0.0000     band energies (ev):

   -16.1881 -16.1301 -14.3822 -14.3332 -12.1397 -12.1051  -3.1890  -2.7361
    -0.5839  -0.1515   9.4031   9.8327  10.1155  10.6673  10.9170  11.6957

     occupation numbers 
     1.0000   1.0000   1.0000   1.0000   1.0000   1.0000   0.0000   0.0000
     0.0000   0.0000   0.0000   0.0000   0.0000   0.0000   0.0000   0.0000

 ------ SPIN DOWN ----------


          k = 0.0000 0.0000 0.0000     band energies (ev):

   -25.4049 -25.3321 -12.5838 -12.0120  -9.8664  -9.8633  -9.8597  -9.8592
     1.9891   2.1008   2.1023   2.1145   2.1199   3.1176   4.3002   5.4255

     occupation numbers 
     1.0000   1.0000   1.0000   1.0000   1.0000   1.0000   1.0000   1.0000
     0.0000   0.0000   0.0000   0.0000   0.0000   0.0000   0.0000   0.0000

          k = 0.0000 0.0962 0.0000     band energies (ev):

   -25.2473 -25.1752 -12.3938 -11.8265 -10.4511 -10.4420 -10.1688 -10.1644
     2.0807   2.2298   2.3492   2.7513   2.7624   3.3460   4.9259   5.0143

     occupation numbers 
     1.0000   1.0000   1.0000   1.0000   1.0000   1.0000   1.0000   1.0000
     0.0000   0.0000   0.0000   0.0000   0.0000   0.0000   0.0000   0.0000

          k = 0.0000 0.1925 0.0000     band energies (ev):

   -24.7764 -24.7067 -11.9457 -11.9301 -11.8310 -11.2767 -10.8961 -10.8910
     2.2192   2.3138   2.9225   3.5603   3.6969   4.0049   4.4865   4.4961

     occupation numbers 
     1.0000   1.0000   1.0000   1.0000   1.0000   1.0000   1.0000   1.0000
     0.0000   0.0000   0.0000   0.0000   0.0000   0.0000   0.0000   0.0000

          k = 0.0000 0.2887 0.0000     band energies (ev):

   -23.9986 -23.9326 -13.8918 -13.8687 -11.7179 -11.7125 -10.9158 -10.3847
     1.6439   1.8632   2.1298   2.1925   3.9229   5.0820   6.8987   6.9052

     occupation numbers 
     1.0000   1.0000   1.0000   1.0000   1.0000   1.0000   1.0000   1.0000
     0.0000   0.0000   0.0000   0.0000   0.0000   0.0000   0.0000   0.0000

          k = 0.0000 0.3849 0.0000     band energies (ev):

   -22.9271 -22.8659 -15.9588 -15.9276 -12.4112 -12.4055  -9.7032  -9.2078
    -0.4944  -0.1843   1.9247   1.9814   5.3142   6.5628   9.5619   9.5654

     occupation numbers 
     1.0000   1.0000   1.0000   1.0000   1.0000   1.0000   1.0000   1.0000
     0.0000   0.0000   0.0000   0.0000   0.0000   0.0000   0.0000   0.0000

          k = 0.0000 0.4811 0.0000     band energies (ev):

   -21.5966 -21.5410 -17.9400 -17.9013 -12.8612 -12.8555  -8.3623  -7.9194
    -2.4750  -2.0734   1.7567   1.8083   7.0334   8.3479  10.4000  11.7883

     occupation numbers 
     1.0000   1.0000   1.0000   1.0000   1.0000   1.0000   1.0000   1.0000
     0.0000   0.0000   0.0000   0.0000   0.0000   0.0000   0.0000   0.0000

          k = 0.0000-0.5774 0.0000     band energies (ev):

   -20.4258 -20.3733 -19.3356 -19.2930 -13.0159 -13.0095  -7.5888  -7.1909
    -3.4769  -3.0146   1.6928   1.7459   8.8440   8.9143  10.3842  10.5054

     occupation numbers 
     1.0000   1.0000   1.0000   1.0000   1.0000   1.0000   1.0000   1.0000
     0.0000   0.0000   0.0000   0.0000   0.0000   0.0000   0.0000   0.0000

          k = 0.0833 0.1443 0.0000     band energies (ev):

   -24.9331 -24.8626 -12.0175 -11.4588 -11.3988 -11.3868 -10.7780 -10.7707
     2.3728   2.5685   2.8125   3.6289   3.6432   3.8431   4.0020   4.1256

     occupation numbers 
     1.0000   1.0000   1.0000   1.0000   1.0000   1.0000   1.0000   1.0000
     0.0000   0.0000   0.0000   0.0000   0.0000   0.0000   0.0000   0.0000

          k = 0.0833 0.2406 0.0000     band energies (ev):

   -24.3088 -24.2412 -12.9802 -12.9618 -11.6925 -11.6833 -11.2769 -10.7364
     2.4029   2.5788   2.7249   2.8375   3.5540   4.6473   5.1370   5.1640

     occupation numbers 
     1.0000   1.0000   1.0000   1.0000   1.0000   1.0000   1.0000   1.0000
     0.0000   0.0000   0.0000   0.0000   0.0000   0.0000   0.0000   0.0000

          k = 0.0833 0.3368 0.0000     band energies (ev):

   -23.3839 -23.3207 -14.9118 -14.8855 -12.5251 -12.5144 -10.2063  -9.6948
     0.4255   0.6752   2.6669   2.7332   4.7147   5.8802   7.2329   7.3081

     occupation numbers 
     1.0000   1.0000   1.0000   1.0000   1.0000   1.0000   1.0000   1.0000
     0.0000   0.0000   0.0000   0.0000   0.0000   0.0000   0.0000   0.0000

          k = 0.0833 0.4330 0.0000     band energies (ev):

   -22.1792 -22.1213 -16.9067 -16.8722 -13.1285 -13.1167  -8.8943  -8.4261
    -1.6237  -1.2879   2.4824   2.5464   6.2650   7.5478   9.2512   9.5452

     occupation numbers 
     1.0000   1.0000   1.0000   1.0000   1.0000   1.0000   1.0000   1.0000
     0.0000   0.0000   0.0000   0.0000   0.0000   0.0000   0.0000   0.0000

          k = 0.0833 0.5292 0.0000     band energies (ev):

   -20.7801 -20.7275 -18.7316 -18.6905 -13.4424 -13.4300  -7.6754  -7.2643
    -3.2544  -2.8342   2.3594   2.4184   8.0171   9.1834   9.3560   9.9488

     occupation numbers 
     1.0000   1.0000   1.0000   1.0000   1.0000   1.0000   1.0000   1.0000
     0.0000   0.0000   0.0000   0.0000   0.0000   0.0000   0.0000   0.0000

          k = 0.1667 0.2887 0.0000     band energies (ev):

   -23.5373 -23.4735 -14.2428 -14.2216 -12.9213 -12.9070 -10.3762  -9.8602
     0.8030   1.0152   3.8566   4.0438   4.6455   5.3507   5.4032   5.7208

     occupation numbers 
     1.0000   1.0000   1.0000   1.0000   1.0000   1.0000   1.0000   1.0000
     0.0000   0.0000   0.0000   0.0000   0.0000   0.0000   0.0000   0.0000

          k = 0.1667 0.3849 0.0000     band energies (ev):

   -22.4776 -22.4187 -15.8599 -15.8317 -13.9079 -13.8901  -9.1790  -8.6985
    -1.0193  -0.7575   4.2405   4.3413   5.8677   6.8742   6.9008   7.1493

     occupation numbers 
     1.0000   1.0000   1.0000   1.0000   1.0000   1.0000   1.0000   1.0000
     0.0000   0.0000   0.0000   0.0000   0.0000   0.0000   0.0000   0.0000

          k = 0.1667 0.4811 0.0000     band energies (ev):

   -21.1685 -21.1150 -17.6479 -17.6115 -14.4610 -14.4410  -7.8309  -7.3994
    -2.8026  -2.4734   4.1080   4.2003   7.3837   8.5635   8.6503   9.0805

     occupation numbers 
     1.0000   1.0000   1.0000   1.0000   1.0000   1.0000   1.0000   1.0000
     0.0000   0.0000   0.0000   0.0000   0.0000   0.0000   0.0000   0.0000

          k = 0.1667 0.5774 0.0000     band energies (ev):

   -20.0248 -19.9746 -18.9723 -18.9316 -14.6394 -14.6188  -7.0080  -6.6176
    -3.7823  -3.4029   4.0402   4.1343   8.0744   8.6226   9.8230   9.8664

     occupation numbers 
     1.0000   1.0000   1.0000   1.0000   1.0000   1.0000   1.0000   1.0000
     1.0000   0.0000   0.0000   0.0000   0.0000   0.0000   0.0000   0.0000

          k = 0.2500 0.4330 0.0000     band energies (ev):

   -21.3077 -21.2541 -16.8614 -16.8313 -15.2556 -15.2338  -7.9000  -7.4640
    -2.5697  -2.2908   6.2124   6.4540   6.5377   6.6827   7.4066   8.4000

     occupation numbers 
     1.0000   1.0000   1.0000   1.0000   1.0000   1.0000   1.0000   1.0000
     0.0000   0.0000   0.0000   0.0000   0.0000   0.0000   0.0000   0.0000

          k = 0.2500 0.5292 0.0000     band energies (ev):

   -19.9667 -19.9184 -18.1858 -18.1490 -15.9246 -15.8991  -6.5953  -6.2045
    -4.0102  -3.6971   6.2064   6.4030   7.2409   7.9827   8.6283   8.7745

     occupation numbers 
     1.0000   1.0000   1.0000   1.0000   1.0000   1.0000   1.0000   1.0000
     1.0000   1.0000   0.0000   0.0000   0.0000   0.0000   0.0000   0.0000

          k = 0.3333 0.5774 0.0000     band energies (ev):

   -18.8274 -18.8257 -18.7869 -18.7837 -16.7153 -16.6877  -5.2990  -5.2800
    -4.9552  -4.9329   6.8140   7.6741   7.7022   8.1925   8.1957   8.5150

     occupation numbers 
     1.0000   1.0000   1.0000   1.0000   1.0000   1.0000   1.0000   1.0000
     1.0000   1.0000   0.0000   0.0000   0.0000   0.0000   0.0000   0.0000

          k =-0.0833 0.0481 0.0000     band energies (ev):

   -25.2472 -25.1752 -12.3937 -11.8266 -10.4497 -10.4410 -10.1712 -10.1644
     2.0753   2.2275   2.3476   2.7503   2.7668   3.3428   4.9232   5.0181

     occupation numbers 
     1.0000   1.0000   1.0000   1.0000   1.0000   1.0000   1.0000   1.0000
     0.0000   0.0000   0.0000   0.0000   0.0000   0.0000   0.0000   0.0000

          k = 0.0833 0.0481 0.0000     band energies (ev):

   -25.2472 -25.1752 -12.3937 -11.8266 -10.4497 -10.4410 -10.1712 -10.1644
     2.0808   2.2275   2.3486   2.7502   2.7667   3.3448   4.9226   5.0175

     occupation numbers 
     1.0000   1.0000   1.0000   1.0000   1.0000   1.0000   1.0000   1.0000
     0.0000   0.0000   0.0000   0.0000   0.0000   0.0000   0.0000   0.0000

          k =-0.1667 0.0962 0.0000     band energies (ev):

   -24.7764 -24.7067 -11.9448 -11.9291 -11.8310 -11.2769 -10.8986 -10.8905
     2.2103   2.3159   2.9219   3.5544   3.7033   4.0083   4.4857   4.5001

     occupation numbers 
     1.0000   1.0000   1.0000   1.0000   1.0000   1.0000   1.0000   1.0000
     0.0000   0.0000   0.0000   0.0000   0.0000   0.0000   0.0000   0.0000

          k = 0.1667 0.0962 0.0000     band energies (ev):

   -24.7764 -24.7067 -11.9448 -11.9291 -11.8308 -11.2770 -10.8987 -10.8905
     2.2145   2.3169   2.9302   3.5544   3.7035   4.0059   4.4854   4.5001

     occupation numbers 
     1.0000   1.0000   1.0000   1.0000   1.0000   1.0000   1.0000   1.0000
     0.0000   0.0000   0.0000   0.0000   0.0000   0.0000   0.0000   0.0000

          k =-0.2500 0.1443 0.0000     band energies (ev):

   -23.9986 -23.9326 -13.8912 -13.8678 -11.7208 -11.7115 -10.9153 -10.3856
     1.6388   1.8666   2.1214   2.2019   3.9226   5.0816   6.8923   6.8965

     occupation numbers 
     1.0000   1.0000   1.0000   1.0000   1.0000   1.0000   1.0000   1.0000
     0.0000   0.0000   0.0000   0.0000   0.0000   0.0000   0.0000   0.0000

          k = 0.2500 0.1443 0.0000     band energies (ev):

   -23.9986 -23.9326 -13.8913 -13.8678 -11.7208 -11.7115 -10.9152 -10.3856
     1.6389   1.8667   2.1221   2.2020   3.9301   5.0669   6.8920   6.9076

     occupation numbers 
     1.0000   1.0000   1.0000   1.0000   1.0000   1.0000   1.0000   1.0000
     0.0000   0.0000   0.0000   0.0000   0.0000   0.0000   0.0000   0.0000

          k =-0.3333 0.1925 0.0000     band energies (ev):

   -22.9271 -22.8659 -15.9584 -15.9271 -12.4140 -12.4042  -9.7011  -9.2107
    -0.4945  -0.1838   1.9110   1.9917   5.3049   6.5616   7.5932   9.5642

     occupation numbers 
     1.0000   1.0000   1.0000   1.0000   1.0000   1.0000   1.0000   1.0000
     0.0000   0.0000   0.0000   0.0000   0.0000   0.0000   0.0000   0.0000

          k = 0.3333 0.1925 0.0000     band energies (ev):

   -22.9271 -22.8659 -15.9584 -15.9269 -12.4140 -12.4042  -9.7012  -9.2107
    -0.4945  -0.1839   1.9110   1.9947   5.3045   6.5793   7.6055   9.5637

     occupation numbers 
     1.0000   1.0000   1.0000   1.0000   1.0000   1.0000   1.0000   1.0000
     0.0000   0.0000   0.0000   0.0000   0.0000   0.0000   0.0000   0.0000

          k =-0.4167 0.2406 0.0000     band energies (ev):

   -21.5962 -21.5414 -17.9394 -17.9008 -12.8640 -12.8540  -8.3538  -7.9301
    -2.4645  -2.0807   1.7406   1.8246   7.0323   8.3511  10.4068  11.8278

     occupation numbers 
     1.0000   1.0000   1.0000   1.0000   1.0000   1.0000   1.0000   1.0000
     0.0000   0.0000   0.0000   0.0000   0.0000   0.0000   0.0000   0.0000

          k = 0.4167 0.2406 0.0000     band energies (ev):

   -21.5963 -21.5415 -17.9394 -17.9009 -12.8640 -12.8540  -8.3539  -7.9301
    -2.4657  -2.0812   1.7405   1.8243   7.0284   8.3346   9.1205  10.3855

     occupation numbers 
     1.0000   1.0000   1.0000   1.0000   1.0000   1.0000   1.0000   1.0000
     0.0000   0.0000   0.0000   0.0000   0.0000   0.0000   0.0000   0.0000

          k = 0.5000-0.2887 0.0000     band energies (ev):

   -20.4230 -20.3771 -19.3321 -19.2945 -13.0187 -13.0080  -7.5664  -7.2194
    -3.4511  -3.0331   1.6767   1.7623   8.8471   8.9274  10.1926  10.5982

     occupation numbers 
     1.0000   1.0000   1.0000   1.0000   1.0000   1.0000   1.0000   1.0000
     0.0000   0.0000   0.0000   0.0000   0.0000   0.0000   0.0000   0.0000

          k =-0.5000-0.2887 0.0000     band energies (ev):

   -20.4229 -20.3772 -19.3322 -19.2944 -13.0186 -13.0080  -7.5664  -7.2194
    -3.4518  -3.0326   1.6765   1.7630   8.8447   8.9035  10.2811  10.6111

     occupation numbers 
     1.0000   1.0000   1.0000   1.0000   1.0000   1.0000   1.0000   1.0000
     0.0000   0.0000   0.0000   0.0000   0.0000   0.0000   0.0000   0.0000

          k =-0.0833 0.1443 0.0000     band energies (ev):

   -24.9331 -24.8625 -12.0173 -11.4587 -11.3988 -11.3868 -10.7780 -10.7706
     2.3744   2.5717   2.8087   3.6289   3.6430   3.8937   4.0020   4.1256

     occupation numbers 
     1.0000   1.0000   1.0000   1.0000   1.0000   1.0000   1.0000   1.0000
     0.0000   0.0000   0.0000   0.0000   0.0000   0.0000   0.0000   0.0000

          k = 0.1667-0.0000 0.0000     band energies (ev):

   -24.9330 -24.8626 -12.0172 -11.4589 -11.3984 -11.3850 -10.7801 -10.7710
     2.3710   2.5638   2.8072   3.6244   3.6510   3.7991   3.9950   4.1333

     occupation numbers 
     1.0000   1.0000   1.0000   1.0000   1.0000   1.0000   1.0000   1.0000
     0.0000   0.0000   0.0000   0.0000   0.0000   0.0000   0.0000   0.0000

          k =-0.0833 0.2406 0.0000     band energies (ev):

   -24.3088 -24.2413 -12.9802 -12.9618 -11.6925 -11.6833 -11.2769 -10.7365
     2.4030   2.5786   2.7273   2.8376   3.5649   4.6093   5.1362   5.1632

     occupation numbers 
     1.0000   1.0000   1.0000   1.0000   1.0000   1.0000   1.0000   1.0000
     0.0000   0.0000   0.0000   0.0000   0.0000   0.0000   0.0000   0.0000

          k =-0.1667 0.1925 0.0000     band energies (ev):

   -24.3087 -24.2412 -12.9797 -12.9613 -11.6939 -11.6830 -11.2768 -10.7367
     2.3999   2.5789   2.7238   2.8436   3.5580   4.6466   5.1389   5.1630

     occupation numbers 
     1.0000   1.0000   1.0000   1.0000   1.0000   1.0000   1.0000   1.0000
     0.0000   0.0000   0.0000   0.0000   0.0000   0.0000   0.0000   0.0000

          k = 0.2500 0.0481 0.0000     band energies (ev):

   -24.3087 -24.2413 -12.9798 -12.9601 -11.6947 -11.6833 -11.2766 -10.7370
     2.3920   2.5898   2.7212   2.8403   3.5583   4.6449   5.1323   5.1711

     occupation numbers 
     1.0000   1.0000   1.0000   1.0000   1.0000   1.0000   1.0000   1.0000
     0.0000   0.0000   0.0000   0.0000   0.0000   0.0000   0.0000   0.0000

          k =-0.1667-0.1925 0.0000     band energies (ev):

   -24.3087 -24.2412 -12.9796 -12.9613 -11.6938 -11.6830 -11.2767 -10.7367
     2.4001   2.5787   2.7219   2.8439   3.5523   4.6473   5.1397   5.1623

     occupation numbers 
     1.0000   1.0000   1.0000   1.0000   1.0000   1.0000   1.0000   1.0000
     0.0000   0.0000   0.0000   0.0000   0.0000   0.0000   0.0000   0.0000

          k = 0.2500-0.0481 0.0000     band energies (ev):

   -24.3087 -24.2413 -12.9798 -12.9601 -11.6946 -11.6834 -11.2765 -10.7370
     2.3923   2.5901   2.7223   2.8399   3.5596   4.6358   5.1342   5.1688

     occupation numbers 
     1.0000   1.0000   1.0000   1.0000   1.0000   1.0000   1.0000   1.0000
     0.0000   0.0000   0.0000   0.0000   0.0000   0.0000   0.0000   0.0000

          k =-0.0833 0.3368 0.0000     band energies (ev):

   -23.3839 -23.3207 -14.9118 -14.8854 -12.5251 -12.5143 -10.2063  -9.6948
     0.4252   0.6752   2.6668   2.7332   4.7181   5.9210   7.2289   7.3070

     occupation numbers 
     1.0000   1.0000   1.0000   1.0000   1.0000   1.0000   1.0000   1.0000
     0.0000   0.0000   0.0000   0.0000   0.0000   0.0000   0.0000   0.0000

          k =-0.2500 0.2406 0.0000     band energies (ev):

   -23.3839 -23.3207 -14.9113 -14.8849 -12.5267 -12.5140 -10.2054  -9.6960
     0.4247   0.6763   2.6556   2.7450   4.7199   5.9116   7.2276   7.2975

     occupation numbers 
     1.0000   1.0000   1.0000   1.0000   1.0000   1.0000   1.0000   1.0000
     0.0000   0.0000   0.0000   0.0000   0.0000   0.0000   0.0000   0.0000

          k = 0.3333 0.0962 0.0000     band energies (ev):

   -23.3838 -23.3207 -14.9116 -14.8842 -12.5270 -12.5142 -10.2050  -9.6964
     0.4173   0.6849   2.6557   2.7434   4.7161   5.9144   7.2314   7.3098

     occupation numbers 
     1.0000   1.0000   1.0000   1.0000   1.0000   1.0000   1.0000   1.0000
     0.0000   0.0000   0.0000   0.0000   0.0000   0.0000   0.0000   0.0000

          k =-0.2500-0.2406 0.0000     band energies (ev):

   -23.3838 -23.3207 -14.9114 -14.8849 -12.5267 -12.5140 -10.2053  -9.6960
     0.4249   0.6764   2.6554   2.7449   4.7136   5.9108   7.2374   7.3041

     occupation numbers 
     1.0000   1.0000   1.0000   1.0000   1.0000   1.0000   1.0000   1.0000
     0.0000   0.0000   0.0000   0.0000   0.0000   0.0000   0.0000   0.0000

          k = 0.3333-0.0962 0.0000     band energies (ev):

   -23.3838 -23.3207 -14.9115 -14.8843 -12.5270 -12.5142 -10.2051  -9.6964
     0.4174   0.6850   2.6559   2.7434   4.7170   5.9196   7.2364   7.3096

     occupation numbers 
     1.0000   1.0000   1.0000   1.0000   1.0000   1.0000   1.0000   1.0000
     0.0000   0.0000   0.0000   0.0000   0.0000   0.0000   0.0000   0.0000

          k =-0.0833 0.4330 0.0000     band energies (ev):

   -22.1793 -22.1213 -16.9067 -16.8722 -13.1286 -13.1167  -8.8943  -8.4261
    -1.6238  -1.2879   2.4824   2.5467   6.2655   7.5581   9.2590   9.5387

     occupation numbers 
     1.0000   1.0000   1.0000   1.0000   1.0000   1.0000   1.0000   1.0000
     0.0000   0.0000   0.0000   0.0000   0.0000   0.0000   0.0000   0.0000

          k =-0.3333 0.2887 0.0000     band energies (ev):

   -22.1792 -22.1215 -16.9062 -16.8717 -13.1302 -13.1164  -8.8905  -8.4310
    -1.6194  -1.2904   2.4679   2.5610   6.2688   7.5188   9.2538   9.5312

     occupation numbers 
     1.0000   1.0000   1.0000   1.0000   1.0000   1.0000   1.0000   1.0000
     0.0000   0.0000   0.0000   0.0000   0.0000   0.0000   0.0000   0.0000

          k = 0.4167 0.1443 0.0000     band energies (ev):

   -22.1791 -22.1215 -16.9064 -16.8714 -13.1303 -13.1165  -8.8901  -8.4315
    -1.6247  -1.2842   2.4679   2.5603   6.2633   7.5546   9.2571   9.5524

     occupation numbers 
     1.0000   1.0000   1.0000   1.0000   1.0000   1.0000   1.0000   1.0000
     0.0000   0.0000   0.0000   0.0000   0.0000   0.0000   0.0000   0.0000

          k =-0.3333-0.2887 0.0000     band energies (ev):

   -22.1791 -22.1216 -16.9062 -16.8719 -13.1302 -13.1164  -8.8905  -8.4310
    -1.6194  -1.2904   2.4679   2.5564   6.2620   7.5178   9.2648   9.5432

     occupation numbers 
     1.0000   1.0000   1.0000   1.0000   1.0000   1.0000   1.0000   1.0000
     0.0000   0.0000   0.0000   0.0000   0.0000   0.0000   0.0000   0.0000

          k = 0.4167-0.1443 0.0000     band energies (ev):

   -22.1791 -22.1216 -16.9064 -16.8716 -13.1303 -13.1165  -8.8901  -8.4315
    -1.6249  -1.2842   2.4679   2.5558   6.2631   7.5137   9.2586   9.5432

     occupation numbers 
     1.0000   1.0000   1.0000   1.0000   1.0000   1.0000   1.0000   1.0000
     0.0000   0.0000   0.0000   0.0000   0.0000   0.0000   0.0000   0.0000

          k =-0.0833 0.5292 0.0000     band energies (ev):

   -20.7800 -20.7273 -18.7313 -18.6900 -13.4423 -13.4298  -7.6754  -7.2643
    -3.2539  -2.8342   2.3649   2.4270   8.0242   9.3994   9.5025  10.7337

     occupation numbers 
     1.0000   1.0000   1.0000   1.0000   1.0000   1.0000   1.0000   1.0000
     0.0000   0.0000   0.0000   0.0000   0.0000   0.0000   0.0000   0.0000

          k =-0.4167 0.3368 0.0000     band energies (ev):

   -20.7793 -20.7285 -18.7304 -18.6900 -13.4439 -13.4295  -7.6595  -7.2847
    -3.2368  -2.8462   2.3434   2.4419   8.0149   9.1303   9.4401   9.9298

     occupation numbers 
     1.0000   1.0000   1.0000   1.0000   1.0000   1.0000   1.0000   1.0000
     0.0000   0.0000   0.0000   0.0000   0.0000   0.0000   0.0000   0.0000

          k = 0.5000 0.1925 0.0000     band energies (ev):

   -20.7793 -20.7285 -18.7305 -18.6898 -13.4440 -13.4295  -7.6593  -7.2847
    -3.2397  -2.8433   2.3434   2.4423   8.0156   9.1042   9.4718   9.9392

     occupation numbers 
     1.0000   1.0000   1.0000   1.0000   1.0000   1.0000   1.0000   1.0000
     0.0000   0.0000   0.0000   0.0000   0.0000   0.0000   0.0000   0.0000

          k =-0.4167-0.3368 0.0000     band energies (ev):

   -20.7793 -20.7287 -18.7304 -18.6904 -13.4439 -13.4297  -7.6595  -7.2847
    -3.2369  -2.8462   2.3434   2.4344   8.0144   9.1275   9.4337   9.9194

     occupation numbers 
     1.0000   1.0000   1.0000   1.0000   1.0000   1.0000   1.0000   1.0000
     0.0000   0.0000   0.0000   0.0000   0.0000   0.0000   0.0000   0.0000

          k = 0.5000-0.1925 0.0000     band energies (ev):

   -20.7793 -20.7287 -18.7305 -18.6902 -13.4440 -13.4297  -7.6594  -7.2847
    -3.2397  -2.8433   2.3434   2.4343   8.0155   9.1034   9.4758   9.9325

     occupation numbers 
     1.0000   1.0000   1.0000   1.0000   1.0000   1.0000   1.0000   1.0000
     0.0000   0.0000   0.0000   0.0000   0.0000   0.0000   0.0000   0.0000

          k =-0.1667 0.2887 0.0000     band energies (ev):

   -23.5373 -23.4735 -14.2427 -14.2216 -12.9213 -12.9071 -10.3763  -9.8603
     0.8029   1.0152   3.8559   4.0433   4.6492   5.3502   5.4032   5.7045

     occupation numbers 
     1.0000   1.0000   1.0000   1.0000   1.0000   1.0000   1.0000   1.0000
     0.0000   0.0000   0.0000   0.0000   0.0000   0.0000   0.0000   0.0000

          k = 0.3333-0.0000 0.0000     band energies (ev):

   -23.5372 -23.4735 -14.2434 -14.2192 -12.9235 -12.9069 -10.3755  -9.8611
     0.7887   1.0312   3.8543   4.0377   4.6494   5.3463   5.4121   5.6784

     occupation numbers 
     1.0000   1.0000   1.0000   1.0000   1.0000   1.0000   1.0000   1.0000
     0.0000   0.0000   0.0000   0.0000   0.0000   0.0000   0.0000   0.0000

          k =-0.1667 0.3849 0.0000     band energies (ev):

   -22.4776 -22.4187 -15.8599 -15.8316 -13.9079 -13.8901  -9.1790  -8.6985
    -1.0192  -0.7576   4.2413   4.3413   5.8769   6.8739   6.9024   7.1529

     occupation numbers 
     1.0000   1.0000   1.0000   1.0000   1.0000   1.0000   1.0000   1.0000
     0.0000   0.0000   0.0000   0.0000   0.0000   0.0000   0.0000   0.0000

          k =-0.2500 0.3368 0.0000     band energies (ev):
[...]
     0.0000   0.0000   0.0000   0.0000   0.0000   0.0000   0.0000   0.0000

          k =-0.3333 0.2887 0.0000 (  3041 PWs)   bands (ev):

   -16.6548 -16.5641 -11.1390 -11.0836  -7.0894  -7.0669  -4.5889  -3.9171
     2.9623   3.4748   7.4362   7.7740   7.8210   7.9879   8.7375   9.8638

     occupation numbers 
     1.0000   1.0000   1.0000   1.0000   1.0000   1.0000   1.0000   1.0000
     0.0000   0.0000   0.0000   0.0000   0.0000   0.0000   0.0000   0.0000

          k = 0.4167 0.1443 0.0000 (  3041 PWs)   bands (ev):

   -16.6548 -16.5641 -11.1392 -11.0832  -7.0895  -7.0670  -4.5884  -3.9177
     2.9550   3.4832   7.4376   7.7601   7.8303   7.9882   8.7382   9.8975

     occupation numbers 
     1.0000   1.0000   1.0000   1.0000   1.0000   1.0000   1.0000   1.0000
     0.0000   0.0000   0.0000   0.0000   0.0000   0.0000   0.0000   0.0000

          k =-0.3333-0.2887 0.0000 (  3041 PWs)   bands (ev):

   -16.6548 -16.5641 -11.1390 -11.0836  -7.0894  -7.0669  -4.5889  -3.9171
     2.9623   3.4748   7.4362   7.7740   7.8209   7.9878   8.7378   9.8990

     occupation numbers 
     1.0000   1.0000   1.0000   1.0000   1.0000   1.0000   1.0000   1.0000
     0.0000   0.0000   0.0000   0.0000   0.0000   0.0000   0.0000   0.0000

          k = 0.4167-0.1443 0.0000 (  3041 PWs)   bands (ev):

   -16.6548 -16.5641 -11.1392 -11.0832  -7.0895  -7.0670  -4.5884  -3.9177
     2.9550   3.4832   7.4376   7.7601   7.8303   7.9883   8.7379   9.8675

     occupation numbers 
     1.0000   1.0000   1.0000   1.0000   1.0000   1.0000   1.0000   1.0000
     0.0000   0.0000   0.0000   0.0000   0.0000   0.0000   0.0000   0.0000

          k =-0.0833 0.5292 0.0000 (  3043 PWs)   bands (ev):

   -15.1764 -15.0933 -13.0782 -13.0126  -7.4147  -7.3944  -3.2517  -2.6496
     1.1337   1.7837   7.5647   7.6592   9.6454  10.1179  10.9358  11.5727

     occupation numbers 
     1.0000   1.0000   1.0000   1.0000   1.0000   1.0000   1.0000   1.0000
     0.0000   0.0000   0.0000   0.0000   0.0000   0.0000   0.0000   0.0000

          k =-0.4167 0.3368 0.0000 (  3043 PWs)   bands (ev):

   -15.1751 -15.0948 -13.0770 -13.0127  -7.4167  -7.3935  -3.2304  -2.6794
     1.1638   1.7637   7.5404   7.6845   9.6460  10.1185  10.9339  11.5620

     occupation numbers 
     1.0000   1.0000   1.0000   1.0000   1.0000   1.0000   1.0000   1.0000
     0.0000   0.0000   0.0000   0.0000   0.0000   0.0000   0.0000   0.0000

          k = 0.5000 0.1925 0.0000 (  3043 PWs)   bands (ev):

   -15.1751 -15.0949 -13.0772 -13.0125  -7.4167  -7.3935  -3.2302  -2.6795
     1.1601   1.7676   7.5402   7.6840   9.6460  10.1150  10.9359  11.5782

     occupation numbers 
     1.0000   1.0000   1.0000   1.0000   1.0000   1.0000   1.0000   1.0000
     0.0000   0.0000   0.0000   0.0000   0.0000   0.0000   0.0000   0.0000

          k =-0.4167-0.3368 0.0000 (  3043 PWs)   bands (ev):

   -15.1751 -15.0948 -13.0770 -13.0127  -7.4167  -7.3935  -3.2304  -2.6794
     1.1638   1.7637   7.5404   7.6845   9.6460  10.1185  10.9339  11.5620

     occupation numbers 
     1.0000   1.0000   1.0000   1.0000   1.0000   1.0000   1.0000   1.0000
     0.0000   0.0000   0.0000   0.0000   0.0000   0.0000   0.0000   0.0000

          k = 0.5000-0.1925 0.0000 (  3043 PWs)   bands (ev):

   -15.1751 -15.0949 -13.0772 -13.0125  -7.4167  -7.3935  -3.2302  -2.6795
     1.1601   1.7676   7.5402   7.6840   9.6460  10.1150  10.9359  11.5782

     occupation numbers 
     1.0000   1.0000   1.0000   1.0000   1.0000   1.0000   1.0000   1.0000
     0.0000   0.0000   0.0000   0.0000   0.0000   0.0000   0.0000   0.0000

          k =-0.1667 0.2887 0.0000 (  3039 PWs)   bands (ev):

   -18.0759 -17.9757  -8.2762  -8.2420  -6.9301  -6.9061  -6.1744  -5.4300
     5.5408   5.6925   5.9601   6.0198   6.7046   7.8869   8.0044   9.4552

     occupation numbers 
     1.0000   1.0000   1.0000   1.0000   1.0000   1.0000   1.0000   1.0000
     0.0000   0.0000   0.0000   0.0000   0.0000   0.0000   0.0000   0.0000

          k = 0.3333-0.0000 0.0000 (  3039 PWs)   bands (ev):

   -18.0758 -17.9758  -8.2778  -8.2387  -6.9329  -6.9053  -6.1736  -5.4311
     5.5409   5.6710   5.9595   6.0450   6.7046   7.8862   8.0042   9.4347

     occupation numbers 
     1.0000   1.0000   1.0000   1.0000   1.0000   1.0000   1.0000   1.0000
     0.0000   0.0000   0.0000   0.0000   0.0000   0.0000   0.0000   0.0000

          k =-0.1667 0.3849 0.0000 (  3045 PWs)   bands (ev):

   -16.9676 -16.8747 -10.0014  -9.9557  -7.9838  -7.9539  -4.9053  -4.2062
     3.7176   4.1197   7.0647   7.4917   8.2732   9.3236   9.4193   9.6799

     occupation numbers 
     1.0000   1.0000   1.0000   1.0000   1.0000   1.0000   1.0000   1.0000
     0.0000   0.0000   0.0000   0.0000   0.0000   0.0000   0.0000   0.0000

          k =-0.2500 0.3368 0.0000 (  3045 PWs)   bands (ev):

   -16.9676 -16.8748 -10.0011  -9.9553  -7.9845  -7.9539  -4.9040  -4.2080
     3.7180   4.1206   7.0645   7.4930   8.2732   9.3246   9.4240   9.6682

     occupation numbers 
     1.0000   1.0000   1.0000   1.0000   1.0000   1.0000   1.0000   1.0000
     0.0000   0.0000   0.0000   0.0000   0.0000   0.0000   0.0000   0.0000

          k = 0.4167 0.0481 0.0000 (  3045 PWs)   bands (ev):

   -16.9675 -16.8749 -10.0024  -9.9533  -7.9860  -7.9533  -4.9028  -4.2095
     3.6969   4.1451   7.0648   7.4906   8.2731   9.3233   9.4148   9.6637

     occupation numbers 
     1.0000   1.0000   1.0000   1.0000   1.0000   1.0000   1.0000   1.0000
     0.0000   0.0000   0.0000   0.0000   0.0000   0.0000   0.0000   0.0000

          k =-0.2500-0.3368 0.0000 (  3045 PWs)   bands (ev):

   -16.9676 -16.8748 -10.0011  -9.9553  -7.9845  -7.9539  -4.9040  -4.2080
     3.7180   4.1206   7.0645   7.4930   8.2732   9.3246   9.4240   9.6682

     occupation numbers 
     1.0000   1.0000   1.0000   1.0000   1.0000   1.0000   1.0000   1.0000
     0.0000   0.0000   0.0000   0.0000   0.0000   0.0000   0.0000   0.0000

          k = 0.4167-0.0481 0.0000 (  3045 PWs)   bands (ev):

   -16.9675 -16.8749 -10.0024  -9.9533  -7.9860  -7.9533  -4.9028  -4.2095
     3.6969   4.1451   7.0648   7.4906   8.2731   9.3233   9.4148   9.6637

     occupation numbers 
     1.0000   1.0000   1.0000   1.0000   1.0000   1.0000   1.0000   1.0000
     0.0000   0.0000   0.0000   0.0000   0.0000   0.0000   0.0000   0.0000

          k =-0.1667 0.4811 0.0000 (  3041 PWs)   bands (ev):

   -15.5918 -15.5074 -11.9105 -11.8520  -8.5587  -8.5255  -3.4532  -2.8204
     1.7632   2.2700   8.9619   9.3709   9.4726   9.5763  10.2240  10.6519

     occupation numbers 
     1.0000   1.0000   1.0000   1.0000   1.0000   1.0000   1.0000   1.0000
     0.0000   0.0000   0.0000   0.0000   0.0000   0.0000   0.0000   0.0000

          k =-0.3333 0.3849 0.0000 (  3041 PWs)   bands (ev):

   -15.5915 -15.5078 -11.9100 -11.8516  -8.5596  -8.5256  -3.4448  -2.8320
     1.7715   2.2669   8.9588   9.4013   9.4349   9.5957  10.2143  10.6403

     occupation numbers 
     1.0000   1.0000   1.0000   1.0000   1.0000   1.0000   1.0000   1.0000
     0.0000   0.0000   0.0000   0.0000   0.0000   0.0000   0.0000   0.0000

          k = 0.5000 0.0962 0.0000 (  3041 PWs)   bands (ev):

   -15.5914 -15.5079 -11.9106 -11.8507  -8.5601  -8.5254  -3.4437  -2.8332
     1.7558   2.2844   8.9605   9.3564   9.4636   9.5947  10.2275  10.6663

     occupation numbers 
     1.0000   1.0000   1.0000   1.0000   1.0000   1.0000   1.0000   1.0000
     0.0000   0.0000   0.0000   0.0000   0.0000   0.0000   0.0000   0.0000

          k =-0.3333-0.3849 0.0000 (  3041 PWs)   bands (ev):

   -15.5915 -15.5078 -11.9100 -11.8516  -8.5596  -8.5256  -3.4448  -2.8320
     1.7715   2.2669   8.9588   9.4013   9.4349   9.5957  10.2143  10.6403

     occupation numbers 
     1.0000   1.0000   1.0000   1.0000   1.0000   1.0000   1.0000   1.0000
     0.0000   0.0000   0.0000   0.0000   0.0000   0.0000   0.0000   0.0000

          k = 0.5000-0.0962 0.0000 (  3041 PWs)   bands (ev):

   -15.5914 -15.5079 -11.9106 -11.8507  -8.5601  -8.5254  -3.4437  -2.8332
     1.7558   2.2844   8.9605   9.3564   9.4636   9.5947  10.2275  10.6663

     occupation numbers 
     1.0000   1.0000   1.0000   1.0000   1.0000   1.0000   1.0000   1.0000
     0.0000   0.0000   0.0000   0.0000   0.0000   0.0000   0.0000   0.0000

          k =-0.4167 0.4330 0.0000 (  3008 PWs)   bands (ev):

   -14.3554 -14.2860 -13.3378 -13.2799  -8.7442  -8.7091  -2.5044  -2.0073
     0.6867   1.2386   9.2952   9.5041  10.7841  11.0936  11.3221  11.3442

     occupation numbers 
     1.0000   1.0000   1.0000   1.0000   1.0000   1.0000   1.0000   1.0000
     0.0000   0.0000   0.0000   0.0000   0.0000   0.0000   0.0000   0.0000

          k = 0.5833 0.1443 0.0000 (  3008 PWs)   bands (ev):

   -14.3554 -14.2860 -13.3378 -13.2799  -8.7442  -8.7091  -2.5044  -2.0073
     0.6867   1.2386   9.2952   9.5041  10.7841  11.0936  11.3221  11.3442

     occupation numbers 
     1.0000   1.0000   1.0000   1.0000   1.0000   1.0000   1.0000   1.0000
     0.0000   0.0000   0.0000   0.0000   0.0000   0.0000   0.0000   0.0000

          k =-0.2500 0.4330 0.0000 (  3033 PWs)   bands (ev):

   -15.7393 -15.6544 -11.0340 -10.9857  -9.4624  -9.4262  -3.5406  -2.9005
     2.1019   2.5205   8.7717   9.1547   9.8996  10.2600  11.1068  11.4119

     occupation numbers 
     1.0000   1.0000   1.0000   1.0000   1.0000   1.0000   1.0000   1.0000
     0.0000   0.0000   0.0000   0.0000   0.0000   0.0000   0.0000   0.0000

          k = 0.5000 0.0000 0.0000 (  3033 PWs)   bands (ev):

   -15.7390 -15.6546 -11.0368 -10.9815  -9.4658  -9.4243  -3.5368  -2.9051
     2.0737   2.5535   8.7720   9.1402   9.9135  10.2743  11.0774  11.4221

     occupation numbers 
     1.0000   1.0000   1.0000   1.0000   1.0000   1.0000   1.0000   1.0000
     0.0000   0.0000   0.0000   0.0000   0.0000   0.0000   0.0000   0.0000

          k =-0.2500 0.5292 0.0000 (  3013 PWs)   bands (ev):

   -14.3176 -14.2411 -12.4550 -12.3959 -10.1696 -10.1275  -2.1297  -1.5544
     0.5629   1.0325   9.8073  10.7368  10.8070  11.4921  11.8141  12.2775

     occupation numbers 
     1.0000   1.0000   1.0000   1.0000   1.0000   1.0000   1.0000   1.0000
     0.0000   0.0000   0.0000   0.0000   0.0000   0.0000   0.0000   0.0000

          k =-0.3333 0.4811 0.0000 (  3013 PWs)   bands (ev):

   -14.3168 -14.2422 -12.4542 -12.3957 -10.1703 -10.1276  -2.1155  -1.5755
     0.5689   1.0353   9.8030  10.7464  10.7993  11.4786  11.7982  12.2804

     occupation numbers 
     1.0000   1.0000   1.0000   1.0000   1.0000   1.0000   1.0000   1.0000
     0.0000   0.0000   0.0000   0.0000   0.0000   0.0000   0.0000   0.0000

          k = 0.5833 0.0481 0.0000 (  3013 PWs)   bands (ev):

   -14.3165 -14.2425 -12.4561 -12.3933 -10.1715 -10.1269  -2.1130  -1.5768
     0.5441   1.0604   9.7938  10.7223  10.8443  11.4754  11.8195  12.2619

     occupation numbers 
     1.0000   1.0000   1.0000   1.0000   1.0000   1.0000   1.0000   1.0000
     0.0000   0.0000   0.0000   0.0000   0.0000   0.0000   0.0000   0.0000

          k =-0.3333-0.4811 0.0000 (  3013 PWs)   bands (ev):

   -14.3168 -14.2422 -12.4542 -12.3957 -10.1703 -10.1276  -2.1155  -1.5755
     0.5689   1.0353   9.8030  10.7464  10.7993  11.4786  11.7982  12.2805

     occupation numbers 
     1.0000   1.0000   1.0000   1.0000   1.0000   1.0000   1.0000   1.0000
     0.0000   0.0000   0.0000   0.0000   0.0000   0.0000   0.0000   0.0000

          k = 0.5833-0.0481 0.0000 (  3013 PWs)   bands (ev):

   -14.3165 -14.2425 -12.4561 -12.3933 -10.1715 -10.1269  -2.1130  -1.5768
     0.5441   1.0604   9.7938  10.7223  10.8443  11.4754  11.8195  12.2619

     occupation numbers 
     1.0000   1.0000   1.0000   1.0000   1.0000   1.0000   1.0000   1.0000
     0.0000   0.0000   0.0000   0.0000   0.0000   0.0000   0.0000   0.0000

     the Fermi energy is    -0.3458 ev

!    total energy              =     -45.57855990 Ry
     Harris-Foulkes estimate   =     -45.57855989 Ry
     estimated scf accuracy    <          1.4E-11 Ry

     The total energy is the sum of the following terms:

     one-electron contribution =    -524.25231752 Ry
     hartree contribution      =     265.59965063 Ry
     xc contribution           =     -14.03075625 Ry
     ewald contribution        =     227.10486324 Ry
     smearing contrib. (-TS)   =       0.00000000 Ry

     total magnetization       =     0.00 Bohr mag/cell
     absolute magnetization    =     0.00 Bohr mag/cell

     convergence has been achieved in  13 iterations

     Forces acting on atoms (Ry/au):

     atom    1 type  1   force =    -0.00023766   -0.00012940   -0.00196888
     atom    2 type  1   force =    -0.00023770    0.00012942   -0.00196888
     atom    3 type  1   force =     0.00023769   -0.00012987    0.00196888
     atom    4 type  1   force =     0.00023767    0.00012984    0.00196889
     The non-local contrib.  to forces
     atom    1 type  1   force =    -0.00013247   -0.00000023   -0.00122241
     atom    2 type  1   force =    -0.00013245    0.00000023   -0.00122243
     atom    3 type  1   force =     0.00012543   -0.00000086    0.00121552
     atom    4 type  1   force =     0.00012546    0.00000083    0.00121553
     The ionic contribution  to forces
     atom    1 type  1   force =    -0.00056811   -0.00005703  -13.92593980
     atom    2 type  1   force =    -0.00056811    0.00005703  -13.92593980
     atom    3 type  1   force =     0.00056811   -0.00005703   13.92593980
     atom    4 type  1   force =     0.00056811    0.00005703   13.92593980
     The local contribution  to forces
     atom    1 type  1   force =     0.00045955   -0.00007214   13.92518346
     atom    2 type  1   force =     0.00045957    0.00007216   13.92518347
     atom    3 type  1   force =    -0.00045922   -0.00007196  -13.92518707
     atom    4 type  1   force =    -0.00045920    0.00007196  -13.92518708
     The core correction contribution to forces
     atom    1 type  1   force =     0.00000000    0.00000000    0.00000000
     atom    2 type  1   force =     0.00000000    0.00000000    0.00000000
     atom    3 type  1   force =     0.00000000    0.00000000    0.00000000
     atom    4 type  1   force =     0.00000000    0.00000000    0.00000000
     The Hubbard contrib.    to forces
     atom    1 type  1   force =     0.00000000    0.00000000    0.00000000
     atom    2 type  1   force =     0.00000000    0.00000000    0.00000000
     atom    3 type  1   force =     0.00000000    0.00000000    0.00000000
     atom    4 type  1   force =     0.00000000    0.00000000    0.00000000
     The SCF correction term to forces
     atom    1 type  1   force =     0.00000003    0.00000000    0.00000616
     atom    2 type  1   force =    -0.00000005    0.00000000    0.00000616
     atom    3 type  1   force =     0.00000004   -0.00000003   -0.00000307
     atom    4 type  1   force =    -0.00000003    0.00000002   -0.00000307

     Total force =     0.003975     Total SCF correction =     0.000010


     entering subroutine stress ...

          total   stress  (Ry/bohr**3)                   (kbar)     P=   -4.97
  -0.00006533  -0.00000000   0.00000446         -9.61     -0.00      0.66
  -0.00000000  -0.00006601   0.00000000         -0.00     -9.71      0.00
   0.00000446   0.00000000   0.00003007          0.66      0.00      4.42

     kinetic stress (kbar)   3525.31     -0.00      0.76
                               -0.00   3525.03      0.00
                                0.76      0.00   4088.18

     local   stress (kbar)-112165.30     -0.00     -2.57
                               -0.00-112165.02      0.00
                               -2.57      0.00 114486.54

     nonloc. stress (kbar)   -152.52     -0.00     -0.05
                               -0.00   -152.51     -0.00
                               -0.05     -0.00   -151.51

     hartree stress (kbar)  54561.59      0.00      0.95
                                0.00  54561.31     -0.00
                                0.95     -0.00 -54217.03

     exc-cor stress (kbar)   -891.25      0.00      0.02
                                0.00   -891.25     -0.00
                                0.02     -0.00   -924.53

     corecor stress (kbar)      0.00      0.00      0.00
                                0.00      0.00      0.00
                                0.00      0.00      0.00

     ewald   stress (kbar)  55112.56      0.00      1.54
                                0.00  55112.73      0.00
                                1.54      0.00 -63277.23

     hubbard stress (kbar)      0.00      0.00      0.00
                                0.00      0.00      0.00
                                0.00      0.00      0.00

     london  stress (kbar)      0.00      0.00      0.00
                                0.00      0.00      0.00
                                0.00      0.00      0.00

     XDM     stress (kbar)      0.00      0.00      0.00
                                0.00      0.00      0.00
                                0.00      0.00      0.00

     dft-nl  stress (kbar)      0.00      0.00      0.00
                                0.00      0.00      0.00
                                0.00      0.00      0.00



     Writing output data file g.dos1.save

     init_run     :      9.23s CPU      9.36s WALL (       1 calls)
     electrons    :    280.75s CPU    281.97s WALL (       1 calls)
     forces       :      4.27s CPU      4.28s WALL (       1 calls)
     stress       :     10.11s CPU     10.12s WALL (       1 calls)

     Called by init_run:
     wfcinit      :      7.32s CPU      7.41s WALL (       1 calls)
     potinit      :      0.82s CPU      0.85s WALL (       1 calls)

     Called by electrons:
     c_bands      :    229.69s CPU    230.69s WALL (      13 calls)
     sum_band     :     37.39s CPU     37.57s WALL (      13 calls)
     v_of_rho     :      8.80s CPU      8.85s WALL (      14 calls)
     v_h          :      0.17s CPU      0.17s WALL (      14 calls)
     v_xc         :      8.63s CPU      8.68s WALL (      14 calls)
     newd         :      4.64s CPU      4.64s WALL (      14 calls)
     mix_rho      :      0.65s CPU      0.65s WALL (      13 calls)

     Called by c_bands:
     init_us_2    :      4.68s CPU      4.71s WALL (    4292 calls)
     cegterg      :    222.07s CPU    223.00s WALL (    1924 calls)

     Called by sum_band:
     sum_band:bec :      0.04s CPU      0.04s WALL (    1924 calls)
     addusdens    :      4.78s CPU      4.79s WALL (      13 calls)

     Called by *egterg:
     h_psi        :    134.53s CPU    135.37s WALL (    7426 calls)
     s_psi        :     19.84s CPU     19.86s WALL (    7426 calls)
     g_psi        :      0.92s CPU      0.92s WALL (    5354 calls)
     cdiaghg      :      6.26s CPU      6.29s WALL (    7278 calls)
     cegterg:over :     26.35s CPU     26.40s WALL (    5354 calls)
     cegterg:upda :     16.33s CPU     16.37s WALL (    5354 calls)
     cegterg:last :     10.76s CPU     10.78s WALL (    1973 calls)

     Called by h_psi:
     h_psi:vloc   :     92.26s CPU     92.96s WALL (    7426 calls)
     h_psi:vnl    :     41.55s CPU     41.69s WALL (    7426 calls)
     add_vuspsi   :     19.95s CPU     19.99s WALL (    7426 calls)

     General routines
     calbec       :     31.41s CPU     31.56s WALL (    9646 calls)
     fft          :      4.24s CPU      4.27s WALL (     437 calls)
     ffts         :      0.04s CPU      0.04s WALL (      54 calls)
     fftw         :     79.30s CPU     79.89s WALL (  182622 calls)
     interpolate  :      0.62s CPU      0.62s WALL (      54 calls)

     Parallel routines
     fft_scatter  :     14.00s CPU     14.11s WALL (  183113 calls)

     PWSCF        :  5m 5.07s CPU     5m 6.59s WALL


   This run was terminated on:   6: 1:20   1May2020            

=------------------------------------------------------------------------------=
   JOB DONE.
=------------------------------------------------------------------------------=
