
     Program PWSCF v.5.1 starts on 30Apr2020 at  7:28:46 

     This program is part of the open-source Quantum ESPRESSO suite
     for quantum simulation of materials; please cite
         "P. Giannozzi et al., J. Phys.:Condens. Matter 21 395502 (2009);
          URL http://www.quantum-espresso.org", 
     in publications or presentations arising from this work. More details at
     http://www.quantum-espresso.org/quote

     Parallel version (MPI), running on     1 processors
     Waiting for input...
     Reading input from standard input

     Current dimensions of program PWSCF are:
     Max number of different atomic species (ntypx) = 10
     Max number of k-points (npk) =  40000
     Max angular momentum in pseudopotentials (lmaxx) =  3

     Subspace diagonalization in iterative solution of the eigenvalue problem:
     a serial algorithm will be used


     G-vector sticks info
     --------------------
     sticks:   dense  smooth     PW     G-vecs:    dense   smooth      PW
     Sum         439     439    151                 6231     6231    1243



     bravais-lattice index     =            2
     lattice parameter (alat)  =       9.0000  a.u.
     unit-cell volume          =     182.2500 (a.u.)^3
     number of atoms/cell      =            1
     number of atomic types    =            1
     number of electrons       =        18.00
     number of Kohn-Sham states=           13
     kinetic-energy cutoff     =      40.0000  Ry
     charge density cutoff     =     160.0000  Ry
     convergence threshold     =      1.0E-06
     mixing beta               =       0.7000
     number of iterations used =            8  plain     mixing
     Exchange-correlation      = PBESOL ( 1  4 10  8 0)

     celldm(1)=   9.000000  celldm(2)=   0.000000  celldm(3)=   0.000000
     celldm(4)=   0.000000  celldm(5)=   0.000000  celldm(6)=   0.000000

     crystal axes: (cart. coord. in units of alat)
               a(1) = (  -0.500000   0.000000   0.500000 )  
               a(2) = (   0.000000   0.500000   0.500000 )  
               a(3) = (  -0.500000   0.500000   0.000000 )  

     reciprocal axes: (cart. coord. in units 2 pi/alat)
               b(1) = ( -1.000000 -1.000000  1.000000 )  
               b(2) = (  1.000000  1.000000  1.000000 )  
               b(3) = ( -1.000000  1.000000 -1.000000 )  


     PseudoPot. # 1 for Ni read from file:
     ../pseudo/Ni.pbesol-spn-rrkjus_psl.1.0.0.UPF
     MD5 check sum: 6fc0a587bf949a08f2faed986b854013
     Pseudo is Ultrasoft + core correction, Zval = 18.0
     Generated using "atomic" code by A. Dal Corso  v.6.3
     Using radial grid of 1195 points,  6 beta functions with: 
                l(1) =   0
                l(2) =   0
                l(3) =   1
                l(4) =   1
                l(5) =   2
                l(6) =   2
     Q(r) pseudized with 0 coefficients 


     atomic species   valence    mass     pseudopotential
        Ni            18.00    58.69000     Ni( 1.00)

     48 Sym. Ops., with inversion, found


                                    s                        frac. trans.

      isym =  1     identity                                     

 cryst.   s( 1) = (     1          0          0      )
                  (     0          1          0      )
                  (     0          0          1      )

 cart.    s( 1) = (  1.0000000  0.0000000  0.0000000 )
                  (  0.0000000  1.0000000  0.0000000 )
                  (  0.0000000  0.0000000  1.0000000 )


      isym =  2     180 deg rotation - cart. axis [0,0,1]        

 cryst.   s( 2) = (     0          1         -1      )
                  (     1          0         -1      )
                  (     0          0         -1      )

 cart.    s( 2) = ( -1.0000000  0.0000000  0.0000000 )
                  (  0.0000000 -1.0000000  0.0000000 )
                  (  0.0000000  0.0000000  1.0000000 )


      isym =  3     180 deg rotation - cart. axis [0,1,0]        

 cryst.   s( 3) = (    -1          0          0      )
                  (    -1          0          1      )
                  (    -1          1          0      )

 cart.    s( 3) = ( -1.0000000  0.0000000  0.0000000 )
                  (  0.0000000  1.0000000  0.0000000 )
                  (  0.0000000  0.0000000 -1.0000000 )


      isym =  4     180 deg rotation - cart. axis [1,0,0]        

 cryst.   s( 4) = (     0         -1          1      )
                  (     0         -1          0      )
                  (     1         -1          0      )

 cart.    s( 4) = (  1.0000000  0.0000000  0.0000000 )
                  (  0.0000000 -1.0000000  0.0000000 )
                  (  0.0000000  0.0000000 -1.0000000 )


      isym =  5     180 deg rotation - cart. axis [1,1,0]        

 cryst.   s( 5) = (     0         -1          0      )
                  (    -1          0          0      )
                  (     0          0         -1      )

 cart.    s( 5) = (  0.0000000  1.0000000  0.0000000 )
                  (  1.0000000  0.0000000  0.0000000 )
                  (  0.0000000  0.0000000 -1.0000000 )


      isym =  6     180 deg rotation - cart. axis [1,-1,0]       

 cryst.   s( 6) = (    -1          0          1      )
                  (     0         -1          1      )
                  (     0          0          1      )

 cart.    s( 6) = (  0.0000000 -1.0000000  0.0000000 )
                  ( -1.0000000  0.0000000  0.0000000 )
                  (  0.0000000  0.0000000 -1.0000000 )


      isym =  7      90 deg rotation - cart. axis [0,0,-1]       

 cryst.   s( 7) = (     0          1          0      )
                  (     0          1         -1      )
                  (    -1          1          0      )

 cart.    s( 7) = (  0.0000000  1.0000000  0.0000000 )
                  ( -1.0000000  0.0000000  0.0000000 )
                  (  0.0000000  0.0000000  1.0000000 )


      isym =  8      90 deg rotation - cart. axis [0,0,1]        

 cryst.   s( 8) = (     1          0         -1      )
                  (     1          0          0      )
                  (     1         -1          0      )

 cart.    s( 8) = (  0.0000000 -1.0000000  0.0000000 )
                  (  1.0000000  0.0000000  0.0000000 )
                  (  0.0000000  0.0000000  1.0000000 )


      isym =  9     180 deg rotation - cart. axis [1,0,1]        

 cryst.   s( 9) = (    -1          0          0      )
                  (     0          0         -1      )
                  (     0         -1          0      )

 cart.    s( 9) = (  0.0000000  0.0000000  1.0000000 )
                  (  0.0000000 -1.0000000  0.0000000 )
                  (  1.0000000  0.0000000  0.0000000 )


      isym = 10     180 deg rotation - cart. axis [-1,0,1]       

 cryst.   s(10) = (     1          0          0      )
                  (     1         -1          0      )
                  (     1          0         -1      )

 cart.    s(10) = (  0.0000000  0.0000000 -1.0000000 )
                  (  0.0000000 -1.0000000  0.0000000 )
                  ( -1.0000000  0.0000000  0.0000000 )


      isym = 11      90 deg rotation - cart. axis [0,1,0]        

 cryst.   s(11) = (     0          1         -1      )
                  (    -1          1          0      )
                  (     0          1          0      )

 cart.    s(11) = (  0.0000000  0.0000000  1.0000000 )
                  (  0.0000000  1.0000000  0.0000000 )
                  ( -1.0000000  0.0000000  0.0000000 )


      isym = 12      90 deg rotation - cart. axis [0,-1,0]       

 cryst.   s(12) = (     0         -1          1      )
                  (     0          0          1      )
                  (    -1          0          1      )

 cart.    s(12) = (  0.0000000  0.0000000 -1.0000000 )
                  (  0.0000000  1.0000000  0.0000000 )
                  (  1.0000000  0.0000000  0.0000000 )


      isym = 13     180 deg rotation - cart. axis [0,1,1]        

 cryst.   s(13) = (    -1          1          0      )
                  (     0          1          0      )
                  (     0          1         -1      )

 cart.    s(13) = ( -1.0000000  0.0000000  0.0000000 )
                  (  0.0000000  0.0000000  1.0000000 )
                  (  0.0000000  1.0000000  0.0000000 )


      isym = 14     180 deg rotation - cart. axis [0,1,-1]       

 cryst.   s(14) = (     0          0         -1      )
                  (     0         -1          0      )
                  (    -1          0          0      )

 cart.    s(14) = ( -1.0000000  0.0000000  0.0000000 )
                  (  0.0000000  0.0000000 -1.0000000 )
                  (  0.0000000 -1.0000000  0.0000000 )


      isym = 15      90 deg rotation - cart. axis [-1,0,0]       

 cryst.   s(15) = (     0          0          1      )
                  (    -1          0          1      )
                  (     0         -1          1      )

 cart.    s(15) = (  1.0000000  0.0000000  0.0000000 )
                  (  0.0000000  0.0000000  1.0000000 )
                  (  0.0000000 -1.0000000  0.0000000 )


      isym = 16      90 deg rotation - cart. axis [1,0,0]        

 cryst.   s(16) = (     1         -1          0      )
                  (     1          0         -1      )
                  (     1          0          0      )

 cart.    s(16) = (  1.0000000  0.0000000  0.0000000 )
                  (  0.0000000  0.0000000 -1.0000000 )
                  (  0.0000000  1.0000000  0.0000000 )


      isym = 17     120 deg rotation - cart. axis [-1,-1,-1]     

 cryst.   s(17) = (    -1          0          1      )
                  (    -1          1          0      )
                  (    -1          0          0      )

 cart.    s(17) = (  0.0000000  1.0000000  0.0000000 )
                  (  0.0000000  0.0000000  1.0000000 )
                  (  1.0000000  0.0000000  0.0000000 )


      isym = 18     120 deg rotation - cart. axis [-1,1,1]       

 cryst.   s(18) = (     0          1          0      )
                  (     0          0          1      )
                  (     1          0          0      )

 cart.    s(18) = (  0.0000000 -1.0000000  0.0000000 )
                  (  0.0000000  0.0000000  1.0000000 )
                  ( -1.0000000  0.0000000  0.0000000 )


      isym = 19     120 deg rotation - cart. axis [1,1,-1]       

 cryst.   s(19) = (     1          0         -1      )
                  (     0          0         -1      )
                  (     0          1         -1      )

 cart.    s(19) = (  0.0000000  1.0000000  0.0000000 )
                  (  0.0000000  0.0000000 -1.0000000 )
                  ( -1.0000000  0.0000000  0.0000000 )


      isym = 20     120 deg rotation - cart. axis [1,-1,1]       

 cryst.   s(20) = (     0         -1          0      )
                  (     1         -1          0      )
                  (     0         -1          1      )

 cart.    s(20) = (  0.0000000 -1.0000000  0.0000000 )
                  (  0.0000000  0.0000000 -1.0000000 )
                  (  1.0000000  0.0000000  0.0000000 )


      isym = 21     120 deg rotation - cart. axis [1,1,1]        

 cryst.   s(21) = (     0          0         -1      )
                  (     0          1         -1      )
                  (     1          0         -1      )

 cart.    s(21) = (  0.0000000  0.0000000  1.0000000 )
                  (  1.0000000  0.0000000  0.0000000 )
                  (  0.0000000  1.0000000  0.0000000 )


      isym = 22     120 deg rotation - cart. axis [-1,1,-1]      

 cryst.   s(22) = (    -1          1          0      )
                  (    -1          0          0      )
                  (    -1          0          1      )

 cart.    s(22) = (  0.0000000  0.0000000  1.0000000 )
                  ( -1.0000000  0.0000000  0.0000000 )
                  (  0.0000000 -1.0000000  0.0000000 )


      isym = 23     120 deg rotation - cart. axis [1,-1,-1]      

 cryst.   s(23) = (     0          0          1      )
                  (     1          0          0      )
                  (     0          1          0      )

 cart.    s(23) = (  0.0000000  0.0000000 -1.0000000 )
                  ( -1.0000000  0.0000000  0.0000000 )
                  (  0.0000000  1.0000000  0.0000000 )


      isym = 24     120 deg rotation - cart. axis [-1,-1,1]      

 cryst.   s(24) = (     1         -1          0      )
                  (     0         -1          1      )
                  (     0         -1          0      )

 cart.    s(24) = (  0.0000000  0.0000000 -1.0000000 )
                  (  1.0000000  0.0000000  0.0000000 )
                  (  0.0000000 -1.0000000  0.0000000 )


      isym = 25     inversion                                    

 cryst.   s(25) = (    -1          0          0      )
                  (     0         -1          0      )
                  (     0          0         -1      )

 cart.    s(25) = ( -1.0000000  0.0000000  0.0000000 )
                  (  0.0000000 -1.0000000  0.0000000 )
                  (  0.0000000  0.0000000 -1.0000000 )


      isym = 26     inv. 180 deg rotation - cart. axis [0,0,1]   

 cryst.   s(26) = (     0         -1          1      )
                  (    -1          0          1      )
                  (     0          0          1      )

 cart.    s(26) = (  1.0000000  0.0000000  0.0000000 )
                  (  0.0000000  1.0000000  0.0000000 )
                  (  0.0000000  0.0000000 -1.0000000 )


      isym = 27     inv. 180 deg rotation - cart. axis [0,1,0]   

 cryst.   s(27) = (     1          0          0      )
                  (     1          0         -1      )
                  (     1         -1          0      )

 cart.    s(27) = (  1.0000000  0.0000000  0.0000000 )
                  (  0.0000000 -1.0000000  0.0000000 )
                  (  0.0000000  0.0000000  1.0000000 )


      isym = 28     inv. 180 deg rotation - cart. axis [1,0,0]   

 cryst.   s(28) = (     0          1         -1      )
                  (     0          1          0      )
                  (    -1          1          0      )

 cart.    s(28) = ( -1.0000000  0.0000000  0.0000000 )
                  (  0.0000000  1.0000000  0.0000000 )
                  (  0.0000000  0.0000000  1.0000000 )


      isym = 29     inv. 180 deg rotation - cart. axis [1,1,0]   

 cryst.   s(29) = (     0          1          0      )
                  (     1          0          0      )
                  (     0          0          1      )

 cart.    s(29) = (  0.0000000 -1.0000000  0.0000000 )
                  ( -1.0000000  0.0000000  0.0000000 )
                  (  0.0000000  0.0000000  1.0000000 )


      isym = 30     inv. 180 deg rotation - cart. axis [1,-1,0]  

 cryst.   s(30) = (     1          0         -1      )
                  (     0          1         -1      )
                  (     0          0         -1      )

 cart.    s(30) = (  0.0000000  1.0000000  0.0000000 )
                  (  1.0000000  0.0000000  0.0000000 )
                  (  0.0000000  0.0000000  1.0000000 )


      isym = 31     inv.  90 deg rotation - cart. axis [0,0,-1]  

 cryst.   s(31) = (     0         -1          0      )
                  (     0         -1          1      )
                  (     1         -1          0      )

 cart.    s(31) = (  0.0000000 -1.0000000  0.0000000 )
                  (  1.0000000  0.0000000  0.0000000 )
                  (  0.0000000  0.0000000 -1.0000000 )


      isym = 32     inv.  90 deg rotation - cart. axis [0,0,1]   

 cryst.   s(32) = (    -1          0          1      )
                  (    -1          0          0      )
                  (    -1          1          0      )

 cart.    s(32) = (  0.0000000  1.0000000  0.0000000 )
                  ( -1.0000000  0.0000000  0.0000000 )
                  (  0.0000000  0.0000000 -1.0000000 )


      isym = 33     inv. 180 deg rotation - cart. axis [1,0,1]   

 cryst.   s(33) = (     1          0          0      )
                  (     0          0          1      )
                  (     0          1          0      )

 cart.    s(33) = (  0.0000000  0.0000000 -1.0000000 )
                  (  0.0000000  1.0000000  0.0000000 )
                  ( -1.0000000  0.0000000  0.0000000 )


      isym = 34     inv. 180 deg rotation - cart. axis [-1,0,1]  

 cryst.   s(34) = (    -1          0          0      )
                  (    -1          1          0      )
                  (    -1          0          1      )

 cart.    s(34) = (  0.0000000  0.0000000  1.0000000 )
                  (  0.0000000  1.0000000  0.0000000 )
                  (  1.0000000  0.0000000  0.0000000 )


      isym = 35     inv.  90 deg rotation - cart. axis [0,1,0]   

 cryst.   s(35) = (     0         -1          1      )
                  (     1         -1          0      )
                  (     0         -1          0      )

 cart.    s(35) = (  0.0000000  0.0000000 -1.0000000 )
                  (  0.0000000 -1.0000000  0.0000000 )
                  (  1.0000000  0.0000000  0.0000000 )


      isym = 36     inv.  90 deg rotation - cart. axis [0,-1,0]  

 cryst.   s(36) = (     0          1         -1      )
                  (     0          0         -1      )
                  (     1          0         -1      )

 cart.    s(36) = (  0.0000000  0.0000000  1.0000000 )
                  (  0.0000000 -1.0000000  0.0000000 )
                  ( -1.0000000  0.0000000  0.0000000 )


      isym = 37     inv. 180 deg rotation - cart. axis [0,1,1]   

 cryst.   s(37) = (     1         -1          0      )
                  (     0         -1          0      )
                  (     0         -1          1      )

 cart.    s(37) = (  1.0000000  0.0000000  0.0000000 )
                  (  0.0000000  0.0000000 -1.0000000 )
                  (  0.0000000 -1.0000000  0.0000000 )


      isym = 38     inv. 180 deg rotation - cart. axis [0,1,-1]  

 cryst.   s(38) = (     0          0          1      )
                  (     0          1          0      )
                  (     1          0          0      )

 cart.    s(38) = (  1.0000000  0.0000000  0.0000000 )
                  (  0.0000000  0.0000000  1.0000000 )
                  (  0.0000000  1.0000000  0.0000000 )


      isym = 39     inv.  90 deg rotation - cart. axis [-1,0,0]  

 cryst.   s(39) = (     0          0         -1      )
                  (     1          0         -1      )
                  (     0          1         -1      )

 cart.    s(39) = ( -1.0000000  0.0000000  0.0000000 )
                  (  0.0000000  0.0000000 -1.0000000 )
                  (  0.0000000  1.0000000  0.0000000 )


      isym = 40     inv.  90 deg rotation - cart. axis [1,0,0]   

 cryst.   s(40) = (    -1          1          0      )
                  (    -1          0          1      )
                  (    -1          0          0      )

 cart.    s(40) = ( -1.0000000  0.0000000  0.0000000 )
                  (  0.0000000  0.0000000  1.0000000 )
                  (  0.0000000 -1.0000000  0.0000000 )


      isym = 41     inv. 120 deg rotation - cart. axis [-1,-1,-1]

 cryst.   s(41) = (     1          0         -1      )
                  (     1         -1          0      )
                  (     1          0          0      )

 cart.    s(41) = (  0.0000000 -1.0000000  0.0000000 )
                  (  0.0000000  0.0000000 -1.0000000 )
                  ( -1.0000000  0.0000000  0.0000000 )


      isym = 42     inv. 120 deg rotation - cart. axis [-1,1,1]  

 cryst.   s(42) = (     0         -1          0      )
                  (     0          0         -1      )
                  (    -1          0          0      )

 cart.    s(42) = (  0.0000000  1.0000000  0.0000000 )
                  (  0.0000000  0.0000000 -1.0000000 )
                  (  1.0000000  0.0000000  0.0000000 )


      isym = 43     inv. 120 deg rotation - cart. axis [1,1,-1]  

 cryst.   s(43) = (    -1          0          1      )
                  (     0          0          1      )
                  (     0         -1          1      )

 cart.    s(43) = (  0.0000000 -1.0000000  0.0000000 )
                  (  0.0000000  0.0000000  1.0000000 )
                  (  1.0000000  0.0000000  0.0000000 )


      isym = 44     inv. 120 deg rotation - cart. axis [1,-1,1]  

 cryst.   s(44) = (     0          1          0      )
                  (    -1          1          0      )
                  (     0          1         -1      )

 cart.    s(44) = (  0.0000000  1.0000000  0.0000000 )
                  (  0.0000000  0.0000000  1.0000000 )
                  ( -1.0000000  0.0000000  0.0000000 )


      isym = 45     inv. 120 deg rotation - cart. axis [1,1,1]   

 cryst.   s(45) = (     0          0          1      )
                  (     0         -1          1      )
                  (    -1          0          1      )

 cart.    s(45) = (  0.0000000  0.0000000 -1.0000000 )
                  ( -1.0000000  0.0000000  0.0000000 )
                  (  0.0000000 -1.0000000  0.0000000 )


      isym = 46     inv. 120 deg rotation - cart. axis [-1,1,-1] 

 cryst.   s(46) = (     1         -1          0      )
                  (     1          0          0      )
                  (     1          0         -1      )

 cart.    s(46) = (  0.0000000  0.0000000 -1.0000000 )
                  (  1.0000000  0.0000000  0.0000000 )
                  (  0.0000000  1.0000000  0.0000000 )


      isym = 47     inv. 120 deg rotation - cart. axis [1,-1,-1] 

 cryst.   s(47) = (     0          0         -1      )
                  (    -1          0          0      )
                  (     0         -1          0      )

 cart.    s(47) = (  0.0000000  0.0000000  1.0000000 )
                  (  1.0000000  0.0000000  0.0000000 )
                  (  0.0000000 -1.0000000  0.0000000 )


      isym = 48     inv. 120 deg rotation - cart. axis [-1,-1,1] 

 cryst.   s(48) = (    -1          1          0      )
                  (     0          1         -1      )
                  (     0          1          0      )

 cart.    s(48) = (  0.0000000  0.0000000  1.0000000 )
                  ( -1.0000000  0.0000000  0.0000000 )
                  (  0.0000000  1.0000000  0.0000000 )


     point group O_h (m-3m) 
     there are 10 classes
     the character table:

       E     8C3   6C2'  6C4   3C2   i     6S4   8S6   3s_h  6s_d 
A_1g   1.00  1.00  1.00  1.00  1.00  1.00  1.00  1.00  1.00  1.00
A_2g   1.00  1.00 -1.00 -1.00  1.00  1.00 -1.00  1.00  1.00 -1.00
E_g    2.00 -1.00  0.00  0.00  2.00  2.00  0.00 -1.00  2.00  0.00
T_1g   3.00  0.00 -1.00  1.00 -1.00  3.00  1.00  0.00 -1.00 -1.00
T_2g   3.00  0.00  1.00 -1.00 -1.00  3.00 -1.00  0.00 -1.00  1.00
A_1u   1.00  1.00  1.00  1.00  1.00 -1.00 -1.00 -1.00 -1.00 -1.00
A_2u   1.00  1.00 -1.00 -1.00  1.00 -1.00  1.00 -1.00 -1.00  1.00
E_u    2.00 -1.00  0.00  0.00  2.00 -2.00  0.00  1.00 -2.00  0.00
T_1u   3.00  0.00 -1.00  1.00 -1.00 -3.00 -1.00  0.00  1.00  1.00
T_2u   3.00  0.00  1.00 -1.00 -1.00 -3.00  1.00  0.00  1.00 -1.00

     the symmetry operations in each class:
     E        1
     3C2      2    4    3
     6C2'     5    6   14   13   10    9
     6C4      7    8   15   16   12   11
     8C3     17   19   20   18   24   21   22   23
     i       25
     3s_h    26   28   27
     6s_d    29   30   38   37   34   33
     6S4     31   32   39   40   36   35
     8S6     41   43   44   42   48   45   46   47

   Cartesian axes

     site n.     atom                  positions (alat units)
         1           Ni  tau(   1) = (   0.0000000   0.0000000   0.0000000  )

   Crystallographic axes

     site n.     atom                  positions (cryst. coord.)
         1           Ni  tau(   1) = (  0.0000000  0.0000000  0.0000000  )

     number of k points=    28  Marzari-Vanderbilt smearing, width (Ry)=  0.0200
                       cart. coord. in units 2pi/alat
        k(    1) = (  -0.0833333   0.0833333   0.0833333), wk =   0.0185185
        k(    2) = (  -0.2500000   0.2500000  -0.0833333), wk =   0.0555556
        k(    3) = (  -0.4166667   0.4166667  -0.2500000), wk =   0.0555556
        k(    4) = (   0.4166667  -0.4166667   0.5833333), wk =   0.0555556
        k(    5) = (   0.2500000  -0.2500000   0.4166667), wk =   0.0555556
        k(    6) = (   0.0833333  -0.0833333   0.2500000), wk =   0.0555556
        k(    7) = (  -0.0833333   0.4166667   0.0833333), wk =   0.0555556
        k(    8) = (  -0.2500000   0.5833333  -0.0833333), wk =   0.1111111
        k(    9) = (   0.5833333  -0.2500000   0.7500000), wk =   0.1111111
        k(   10) = (   0.4166667  -0.0833333   0.5833333), wk =   0.1111111
        k(   11) = (   0.2500000   0.0833333   0.4166667), wk =   0.1111111
        k(   12) = (  -0.0833333   0.7500000   0.0833333), wk =   0.0555556
        k(   13) = (   0.7500000  -0.0833333   0.9166667), wk =   0.1111111
        k(   14) = (   0.5833333   0.0833333   0.7500000), wk =   0.1111111
        k(   15) = (   0.4166667   0.2500000   0.5833333), wk =   0.1111111
        k(   16) = (  -0.0833333  -0.9166667   0.0833333), wk =   0.0555556
        k(   17) = (  -0.2500000  -0.7500000  -0.0833333), wk =   0.1111111
        k(   18) = (  -0.0833333  -0.5833333   0.0833333), wk =   0.0555556
        k(   19) = (  -0.2500000   0.2500000   0.2500000), wk =   0.0185185
        k(   20) = (  -0.4166667   0.4166667   0.0833333), wk =   0.0555556
        k(   21) = (   0.4166667  -0.4166667   0.9166667), wk =   0.0555556
        k(   22) = (   0.2500000  -0.2500000   0.7500000), wk =   0.0555556
        k(   23) = (  -0.2500000   0.5833333   0.2500000), wk =   0.0555556
        k(   24) = (   0.5833333  -0.2500000   1.0833333), wk =   0.1111111
        k(   25) = (   0.4166667  -0.0833333   0.9166667), wk =   0.1111111
        k(   26) = (  -0.2500000  -1.0833333   0.2500000), wk =   0.0555556
        k(   27) = (  -0.4166667   0.4166667   0.4166667), wk =   0.0185185
        k(   28) = (   0.4166667  -0.4166667   1.2500000), wk =   0.0555556

                       cryst. coord.
        k(    1) = (   0.0833333   0.0833333   0.0833333), wk =   0.0185185
        k(    2) = (   0.0833333   0.0833333   0.2500000), wk =   0.0555556
        k(    3) = (   0.0833333   0.0833333   0.4166667), wk =   0.0555556
        k(    4) = (   0.0833333   0.0833333  -0.4166667), wk =   0.0555556
        k(    5) = (   0.0833333   0.0833333  -0.2500000), wk =   0.0555556
        k(    6) = (   0.0833333   0.0833333  -0.0833333), wk =   0.0555556
        k(    7) = (   0.0833333   0.2500000   0.2500000), wk =   0.0555556
        k(    8) = (   0.0833333   0.2500000   0.4166667), wk =   0.1111111
        k(    9) = (   0.0833333   0.2500000  -0.4166667), wk =   0.1111111
        k(   10) = (   0.0833333   0.2500000  -0.2500000), wk =   0.1111111
        k(   11) = (   0.0833333   0.2500000  -0.0833333), wk =   0.1111111
        k(   12) = (   0.0833333   0.4166667   0.4166667), wk =   0.0555556
        k(   13) = (   0.0833333   0.4166667  -0.4166667), wk =   0.1111111
        k(   14) = (   0.0833333   0.4166667  -0.2500000), wk =   0.1111111
        k(   15) = (   0.0833333   0.4166667  -0.0833333), wk =   0.1111111
        k(   16) = (   0.0833333  -0.4166667  -0.4166667), wk =   0.0555556
        k(   17) = (   0.0833333  -0.4166667  -0.2500000), wk =   0.1111111
        k(   18) = (   0.0833333  -0.2500000  -0.2500000), wk =   0.0555556
        k(   19) = (   0.2500000   0.2500000   0.2500000), wk =   0.0185185
        k(   20) = (   0.2500000   0.2500000   0.4166667), wk =   0.0555556
        k(   21) = (   0.2500000   0.2500000  -0.4166667), wk =   0.0555556
        k(   22) = (   0.2500000   0.2500000  -0.2500000), wk =   0.0555556
        k(   23) = (   0.2500000   0.4166667   0.4166667), wk =   0.0555556
        k(   24) = (   0.2500000   0.4166667  -0.4166667), wk =   0.1111111
        k(   25) = (   0.2500000   0.4166667  -0.2500000), wk =   0.1111111
        k(   26) = (   0.2500000  -0.4166667  -0.4166667), wk =   0.0555556
        k(   27) = (   0.4166667   0.4166667   0.4166667), wk =   0.0185185
        k(   28) = (   0.4166667   0.4166667  -0.4166667), wk =   0.0555556

     Dense  grid:     6231 G-vectors     FFT dimensions: (  25,  25,  25)

     Largest allocated arrays     est. size (Mb)     dimensions
        Kohn-Sham Wavefunctions         0.16 Mb     (     788,   13)
        NL pseudopotentials             0.22 Mb     (     788,   18)
        Each V/rho on FFT grid          0.24 Mb     (   15625)
        Each G-vector array             0.05 Mb     (    6231)
        G-vector shells                 0.00 Mb     (     112)
     Largest temporary arrays     est. size (Mb)     dimensions
        Auxiliary wavefunctions         0.63 Mb     (     788,   52)
        Each subspace H/S matrix        0.04 Mb     (      52,   52)
        Each <psi_i|beta_j> matrix      0.00 Mb     (      18,   13)
        Arrays for rho mixing           1.91 Mb     (   15625,    8)

     Check: negative/imaginary core charge=   -0.000026    0.000000

     Initial potential from superposition of free atoms

     starting charge   17.99977, renormalised to   18.00000
     Starting wfc are   10 randomized atomic wfcs +    3 random wfc

     total cpu time spent up to now is        0.7 secs

     per-process dynamical memory:    14.5 Mb

     Self-consistent Calculation

     iteration #  1     ecut=    40.00 Ry     beta=0.70
     Davidson diagonalization with overlap
     ethr =  1.00E-02,  avg # of iterations =  5.5

     total cpu time spent up to now is        1.2 secs

     total energy              =    -338.38595438 Ry
     Harris-Foulkes estimate   =    -338.73575755 Ry
     estimated scf accuracy    <       0.44818184 Ry

     iteration #  2     ecut=    40.00 Ry     beta=0.70
     Davidson diagonalization with overlap
     ethr =  2.49E-03,  avg # of iterations =  3.0

     total cpu time spent up to now is        1.7 secs

     total energy              =    -337.90441217 Ry
     Harris-Foulkes estimate   =    -339.53110574 Ry
     estimated scf accuracy    <       7.05008177 Ry

     iteration #  3     ecut=    40.00 Ry     beta=0.70
     Davidson diagonalization with overlap
     ethr =  2.49E-03,  avg # of iterations =  3.0

     total cpu time spent up to now is        2.2 secs

     total energy              =    -338.66663731 Ry
     Harris-Foulkes estimate   =    -338.66870647 Ry
     estimated scf accuracy    <       0.00804851 Ry

     iteration #  4     ecut=    40.00 Ry     beta=0.70
     Davidson diagonalization with overlap
     ethr =  4.47E-05,  avg # of iterations =  1.4

     total cpu time spent up to now is        2.5 secs

     total energy              =    -338.66772784 Ry
     Harris-Foulkes estimate   =    -338.66774798 Ry
     estimated scf accuracy    <       0.00008324 Ry

     iteration #  5     ecut=    40.00 Ry     beta=0.70
     Davidson diagonalization with overlap
     ethr =  4.62E-07,  avg # of iterations =  2.0

     total cpu time spent up to now is        2.9 secs

     total energy              =    -338.66774297 Ry
     Harris-Foulkes estimate   =    -338.66774652 Ry
     estimated scf accuracy    <       0.00001238 Ry

     iteration #  6     ecut=    40.00 Ry     beta=0.70
     Davidson diagonalization with overlap
     ethr =  6.88E-08,  avg # of iterations =  1.6

     total cpu time spent up to now is        3.2 secs

     End of self-consistent calculation

          k =-0.0833 0.0833 0.0833 (   779 PWs)   bands (ev):

   -97.6947 -57.6748 -57.5450 -57.5450   0.3368   3.8241   3.9146   3.9146
     4.1143   4.1143  17.3946  18.8464  18.8464

     occupation numbers 
     1.0000   1.0000   1.0000   1.0000   1.0000   1.0322   1.0620   1.0620
     1.0387   1.0387   0.0000   0.0000   0.0000

          k =-0.2500 0.2500-0.0833 (   788 PWs)   bands (ev):

   -97.6967 -57.6846 -57.6279 -57.6267   1.0714   3.7334   3.9058   3.9206
     4.0391   4.1584  13.9497  16.0159  19.1383

     occupation numbers 
     1.0000   1.0000   1.0000   1.0000   1.0000   1.0126   1.0590   1.0640
     1.0809   0.9837   0.0000   0.0000   0.0000

          k =-0.4167 0.4167-0.2500 (   779 PWs)   bands (ev):

   -97.6962 -57.6576 -57.6148 -57.5854   2.5876   3.8369   3.8699   3.9391
     4.2201   4.4169   9.2162  15.5283  17.6784

     occupation numbers 
     1.0000   1.0000   1.0000   1.0000   1.0000   1.0360   1.0466   1.0699
     0.8673   0.3538   0.0000   0.0000   0.0000

          k = 0.4167-0.4167 0.5833 (   783 PWs)   bands (ev):

   -97.6969 -57.6718 -57.6567 -57.5964   3.0399   3.7795   3.8397   4.1766
     4.2888   5.4571   6.7363  16.0578  16.5341

     occupation numbers 
     1.0000   1.0000   1.0000   1.0000   1.0000   1.0210   1.0368   0.9539
     0.6955   0.0000   0.0000   0.0000   0.0000

          k = 0.2500-0.2500 0.4167 (   780 PWs)   bands (ev):

   -97.6962 -57.6463 -57.6227 -57.5929   2.0733   3.7774   3.8524   3.9064
     4.2208   4.2676  10.6806  16.3804  17.2825

     occupation numbers 
     1.0000   1.0000   1.0000   1.0000   1.0000   1.0205   1.0409   1.0592
     0.8658   0.7519   0.0000   0.0000   0.0000

          k = 0.0833-0.0833 0.2500 (   785 PWs)   bands (ev):

   -97.6961 -57.6832 -57.6250 -57.5768   0.7082   3.7677   3.8859   3.9114
     4.0623   4.1551  15.6980  17.2490  18.3017

     occupation numbers 
     1.0000   1.0000   1.0000   1.0000   1.0000   1.0186   1.0521   1.0609
     1.0740   0.9886   0.0000   0.0000   0.0000

          k =-0.0833 0.4167 0.0833 (   787 PWs)   bands (ev):

   -97.6965 -57.6831 -57.6524 -57.5918   1.4328   3.6596   3.9004   3.9732
     4.0724   4.2049  14.2120  15.6930  16.8625

     occupation numbers 
     1.0000   1.0000   1.0000   1.0000   1.0000   1.0049   1.0571   1.0788
     1.0694   0.9000   0.0000   0.0000   0.0000

          k =-0.2500 0.5833-0.0833 (   779 PWs)   bands (ev):

   -97.6961 -57.6389 -57.6262 -57.5869   2.6820   3.6054   3.7885   4.0875
     4.2280   4.5192  11.3242  13.3645  14.7920

     occupation numbers 
     1.0000   1.0000   1.0000   1.0000   1.0000   1.0022   1.0230   1.0607
     0.8495   0.1570   0.0000   0.0000   0.0000

          k = 0.5833-0.2500 0.7500 (   779 PWs)   bands (ev):

   -97.6963 -57.6653 -57.6393 -57.5585   3.3661   3.6631   3.8707   4.0036
     4.3026   6.3178   7.3479  12.7163  13.9651

     occupation numbers 
     1.0000   1.0000   1.0000   1.0000   1.0000   1.0051   1.0469   1.0830
     0.6578   0.0000   0.0000   0.0000   0.0000

          k = 0.4167-0.0833 0.5833 (   779 PWs)   bands (ev):

   -97.6963 -57.6392 -57.6244 -57.5983   3.1023   3.6991   3.7477   4.0238
     4.1862   4.8948   9.9110  12.0624  15.3849

     occupation numbers 
     1.0000   1.0000   1.0000   1.0000   1.0000   1.0083   1.0149   1.0829
     0.9367   0.0008   0.0000   0.0000   0.0000

          k = 0.2500 0.0833 0.4167 (   781 PWs)   bands (ev):

   -97.6961 -57.6301 -57.6213 -57.6096   1.7740   3.6739   3.8659   3.9974
     4.0905   4.3094  12.4796  14.5708  17.6632

     occupation numbers 
     1.0000   1.0000   1.0000   1.0000   1.0000   1.0059   1.0453   1.0826
     1.0586   0.6391   0.0000   0.0000   0.0000

          k =-0.0833 0.7500 0.0833 (   777 PWs)   bands (ev):

   -97.6963 -57.6321 -57.6241 -57.5929   3.1111   3.4318   4.1449   4.2427
     4.3424   4.8248  11.2132  12.4092  13.5248

     occupation numbers 
     1.0000   1.0000   1.0000   1.0000   1.0000   1.0001   1.0031   0.8146
     0.5479   0.0029   0.0000   0.0000   0.0000

          k = 0.7500-0.0833 0.9167 (   772 PWs)   bands (ev):

   -97.6958 -57.6553 -57.5937 -57.5365   3.3720   3.4855   4.0683   4.2308
     4.3745   6.8132   9.0594  10.3952  12.3276

     occupation numbers 
     1.0000   1.0000   1.0000   1.0000   1.0000   1.0003   1.0714   0.8429
     0.4608   0.0000   0.0000   0.0000   0.0000

          k = 0.5833 0.0833 0.7500 (   774 PWs)   bands (ev):

   -97.6957 -57.6508 -57.5959 -57.5463   3.5029   3.6571   3.8277   4.0861
     4.3018   6.9405   8.0790  10.3047  13.5266

     occupation numbers 
     1.0000   1.0000   1.0000   1.0000   1.0004   1.0047   1.0333   1.0615
     0.6600   0.0000   0.0000   0.0000   0.0000

          k = 0.4167 0.2500 0.5833 (   779 PWs)   bands (ev):

   -97.6963 -57.6488 -57.6372 -57.5773   3.0646   3.7470   3.9188   3.9651
     4.2817   5.0327   8.1045  14.4348  15.7036

     occupation numbers 
     1.0000   1.0000   1.0000   1.0000   1.0000   1.0148   1.0634   1.0771
     0.7147   0.0000   0.0000   0.0000   0.0000

          k =-0.0833-0.9167 0.0833 (   772 PWs)   bands (ev):

   -97.6960 -57.6682 -57.6062 -57.5220   3.2537   3.3707   4.3047   4.3169
     4.3803   6.3137   8.8888  11.8997  13.0545

     occupation numbers 
     1.0000   1.0000   1.0000   1.0000   1.0000   1.0000   0.6522   0.6184
     0.4455   0.0000   0.0000   0.0000   0.0000

          k =-0.2500-0.7500-0.0833 (   775 PWs)   bands (ev):

   -97.6960 -57.6389 -57.6025 -57.5768   3.2664   3.5207   3.9293   4.1966
     4.3242   5.2618  10.4429  11.7775  12.8329

     occupation numbers 
     1.0000   1.0000   1.0000   1.0000   1.0000   1.0005   1.0668   0.9168
     0.5983   0.0000   0.0000   0.0000   0.0000

          k =-0.0833-0.5833 0.0833 (   786 PWs)   bands (ev):

   -97.6967 -57.6662 -57.6507 -57.6186   2.4048   3.5261   3.8877   4.0997
     4.2472   4.2786  12.9701  14.2725  14.4215

     occupation numbers 
     1.0000   1.0000   1.0000   1.0000   1.0000   1.0006   1.0527   1.0517
     0.8037   0.7229   0.0000   0.0000   0.0000

          k =-0.2500 0.2500 0.2500 (   784 PWs)   bands (ev):

   -97.6964 -57.6817 -57.6095 -57.6095   1.4235   3.7744   3.9170   3.9170
     4.1156   4.1156  12.1518  17.8072  17.8072

     occupation numbers 
     1.0000   1.0000   1.0000   1.0000   1.0000   1.0199   1.0628   1.0628
     1.0374   1.0374   0.0000   0.0000   0.0000

          k =-0.4167 0.4167 0.0833 (   787 PWs)   bands (ev):

   -97.6971 -57.6634 -57.6629 -57.6348   2.3942   3.6834   3.8296   3.9413
     4.0787   4.4603  11.0274  13.1745  17.7487

     occupation numbers 
     1.0000   1.0000   1.0000   1.0000   1.0000   1.0067   1.0338   1.0706
     1.0660   0.2585   0.0000   0.0000   0.0000

          k = 0.4167-0.4167 0.9167 (   781 PWs)   bands (ev):

   -97.6966 -57.6885 -57.6206 -57.5858   3.3677   3.7104   3.8078   3.9934
     4.2045   5.6599   8.8173  11.0154  15.6034

     occupation numbers 
     1.0000   1.0000   1.0000   1.0000   1.0000   1.0095   1.0278   1.0821
     0.9008   0.0000   0.0000   0.0000   0.0000

          k = 0.2500-0.2500 0.7500 (   777 PWs)   bands (ev):

   -97.6962 -57.6352 -57.6237 -57.5832   3.3081   3.6212   3.8776   4.0568
     4.3554   5.6153   8.7529  12.1384  14.3788

     occupation numbers 
     1.0000   1.0000   1.0000   1.0000   1.0000   1.0028   1.0492   1.0761
     0.5122   0.0000   0.0000   0.0000   0.0000

          k =-0.2500 0.5833 0.2500 (   783 PWs)   bands (ev):

   -97.6967 -57.6845 -57.6440 -57.5885   2.8506   3.6970   3.7886   3.9488
     4.3171   4.6110   9.5430  14.8922  15.2069

     occupation numbers 
     1.0000   1.0000   1.0000   1.0000   1.0000   1.0080   1.0230   1.0728
     0.6177   0.0608   0.0000   0.0000   0.0000

          k = 0.5833-0.2500 1.0833 (   771 PWs)   bands (ev):

   -97.6954 -57.6206 -57.5730 -57.5602   3.5015   3.6478   3.7360   4.1302
     4.3195   5.9591   9.1375  11.2194  12.7091

     occupation numbers 
     1.0000   1.0000   1.0000   1.0000   1.0004   1.0041   1.0130   1.0216
     0.6113   0.0000   0.0000   0.0000   0.0000

          k = 0.4167-0.0833 0.9167 (   767 PWs)   bands (ev):

   -97.6951 -57.5978 -57.5593 -57.5500   3.5419   3.6368   3.8301   4.1501
     4.3885   7.5914   8.7023   9.8979  11.2538

     occupation numbers 
     1.0000   1.0000   1.0000   1.0000   1.0008   1.0035   1.0340   0.9959
     0.4243   0.0000   0.0000   0.0000   0.0000

          k =-0.2500-1.0833 0.2500 (   770 PWs)   bands (ev):

   -97.6953 -57.6540 -57.5658 -57.5259   3.4083   3.5845   4.0213   4.1541
     4.3336   7.2389   8.3090   9.7520  13.9524

     occupation numbers 
     1.0000   1.0000   1.0000   1.0000   1.0001   1.0016   1.0831   0.9902
     0.5721   0.0000   0.0000   0.0000   0.0000

          k =-0.4167 0.4167 0.4167 (   772 PWs)   bands (ev):

   -97.6955 -57.6046 -57.6046 -57.5602   2.8527   3.8587   3.8587   4.2983
     4.2983   4.5272   7.7762  17.2425  17.2426

     occupation numbers 
     1.0000   1.0000   1.0000   1.0000   1.0000   1.0429   1.0429   0.6697
     0.6697   0.1457   0.0000   0.0000   0.0000

          k = 0.4167-0.4167 1.2500 (   778 PWs)   bands (ev):

   -97.6962 -57.6568 -57.6426 -57.5536   3.2318   3.7132   3.9152   4.0137
     4.2906   5.9413   7.0435  13.4854  15.9304

     occupation numbers 
     1.0000   1.0000   1.0000   1.0000   1.0000   1.0099   1.0622   1.0833
     0.6906   0.0000   0.0000   0.0000   0.0000

     the Fermi energy is     4.3978 ev

!    total energy              =    -338.66774424 Ry
     Harris-Foulkes estimate   =    -338.66774435 Ry
     estimated scf accuracy    <       0.00000013 Ry

     The total energy is the sum of the following terms:

     one-electron contribution =    -286.27554377 Ry
     hartree contribution      =     146.32743706 Ry
     xc contribution           =     -33.67016011 Ry
     ewald contribution        =    -165.05503471 Ry
     smearing contrib. (-TS)   =       0.00555729 Ry

     convergence has been achieved in   6 iterations

     Writing output data file Ni_exc2.save

     init_run     :      0.49s CPU      0.50s WALL (       1 calls)
     electrons    :      2.48s CPU      2.51s WALL (       1 calls)

     Called by init_run:
     wfcinit      :      0.12s CPU      0.12s WALL (       1 calls)
     potinit      :      0.01s CPU      0.01s WALL (       1 calls)

     Called by electrons:
     c_bands      :      1.98s CPU      2.01s WALL (       6 calls)
     sum_band     :      0.36s CPU      0.36s WALL (       6 calls)
     v_of_rho     :      0.05s CPU      0.05s WALL (       7 calls)
     v_h          :      0.00s CPU      0.00s WALL (       7 calls)
     v_xc         :      0.05s CPU      0.05s WALL (       7 calls)
     newd         :      0.11s CPU      0.11s WALL (       7 calls)
     mix_rho      :      0.00s CPU      0.00s WALL (       6 calls)

     Called by c_bands:
     init_us_2    :      0.09s CPU      0.09s WALL (     364 calls)
     cegterg      :      1.87s CPU      1.89s WALL (     168 calls)

     Called by sum_band:
     sum_band:bec :      0.00s CPU      0.00s WALL (     168 calls)
     addusdens    :      0.09s CPU      0.09s WALL (       6 calls)

     Called by *egterg:
     h_psi        :      1.21s CPU      1.22s WALL (     660 calls)
     s_psi        :      0.11s CPU      0.11s WALL (     660 calls)
     g_psi        :      0.01s CPU      0.01s WALL (     464 calls)
     cdiaghg      :      0.15s CPU      0.15s WALL (     632 calls)
     cegterg:over :      0.20s CPU      0.20s WALL (     464 calls)
     cegterg:upda :      0.12s CPU      0.13s WALL (     464 calls)
     cegterg:last :      0.07s CPU      0.07s WALL (     168 calls)

     Called by h_psi:
     h_psi:vloc   :      0.98s CPU      0.99s WALL (     660 calls)
     h_psi:vnl    :      0.22s CPU      0.22s WALL (     660 calls)
     add_vuspsi   :      0.11s CPU      0.11s WALL (     660 calls)

     General routines
     calbec       :      0.15s CPU      0.15s WALL (     828 calls)
     fft          :      0.01s CPU      0.01s WALL (      90 calls)
     fftw         :      0.98s CPU      0.99s WALL (   14020 calls)
     davcio       :      0.00s CPU      0.00s WALL (      28 calls)

     Parallel routines
     fft_scatter  :      0.10s CPU      0.10s WALL (   14110 calls)

     PWSCF        :     3.21s CPU         3.25s WALL


   This run was terminated on:   7:28:49  30Apr2020            

=------------------------------------------------------------------------------=
   JOB DONE.
=------------------------------------------------------------------------------=
