
     Program PWSCF v.5.1 starts on 30Apr2020 at  7:28:43 

     This program is part of the open-source Quantum ESPRESSO suite
     for quantum simulation of materials; please cite
         "P. Giannozzi et al., J. Phys.:Condens. Matter 21 395502 (2009);
          URL http://www.quantum-espresso.org", 
     in publications or presentations arising from this work. More details at
     http://www.quantum-espresso.org/quote

     Parallel version (MPI), running on     1 processors
     Waiting for input...
     Reading input from standard input

     Current dimensions of program PWSCF are:
     Max number of different atomic species (ntypx) = 10
     Max number of k-points (npk) =  40000
     Max angular momentum in pseudopotentials (lmaxx) =  3

     Subspace diagonalization in iterative solution of the eigenvalue problem:
     a serial algorithm will be used


     G-vector sticks info
     --------------------
     sticks:   dense  smooth     PW     G-vecs:    dense   smooth      PW
     Sum         397     397    127                 5209     5209     965



     bravais-lattice index     =            2
     lattice parameter (alat)  =       8.5000  a.u.
     unit-cell volume          =     153.5312 (a.u.)^3
     number of atoms/cell      =            1
     number of atomic types    =            1
     number of electrons       =        18.00
     number of Kohn-Sham states=           13
     kinetic-energy cutoff     =      40.0000  Ry
     charge density cutoff     =     160.0000  Ry
     convergence threshold     =      1.0E-06
     mixing beta               =       0.7000
     number of iterations used =            8  plain     mixing
     Exchange-correlation      = PBESOL ( 1  4 10  8 0)

     celldm(1)=   8.500000  celldm(2)=   0.000000  celldm(3)=   0.000000
     celldm(4)=   0.000000  celldm(5)=   0.000000  celldm(6)=   0.000000

     crystal axes: (cart. coord. in units of alat)
               a(1) = (  -0.500000   0.000000   0.500000 )  
               a(2) = (   0.000000   0.500000   0.500000 )  
               a(3) = (  -0.500000   0.500000   0.000000 )  

     reciprocal axes: (cart. coord. in units 2 pi/alat)
               b(1) = ( -1.000000 -1.000000  1.000000 )  
               b(2) = (  1.000000  1.000000  1.000000 )  
               b(3) = ( -1.000000  1.000000 -1.000000 )  


     PseudoPot. # 1 for Ni read from file:
     ../pseudo/Ni.pbesol-spn-rrkjus_psl.1.0.0.UPF
     MD5 check sum: 6fc0a587bf949a08f2faed986b854013
     Pseudo is Ultrasoft + core correction, Zval = 18.0
     Generated using "atomic" code by A. Dal Corso  v.6.3
     Using radial grid of 1195 points,  6 beta functions with: 
                l(1) =   0
                l(2) =   0
                l(3) =   1
                l(4) =   1
                l(5) =   2
                l(6) =   2
     Q(r) pseudized with 0 coefficients 


     atomic species   valence    mass     pseudopotential
        Ni            18.00    58.69000     Ni( 1.00)

     48 Sym. Ops., with inversion, found


                                    s                        frac. trans.

      isym =  1     identity                                     

 cryst.   s( 1) = (     1          0          0      )
                  (     0          1          0      )
                  (     0          0          1      )

 cart.    s( 1) = (  1.0000000  0.0000000  0.0000000 )
                  (  0.0000000  1.0000000  0.0000000 )
                  (  0.0000000  0.0000000  1.0000000 )


      isym =  2     180 deg rotation - cart. axis [0,0,1]        

 cryst.   s( 2) = (     0          1         -1      )
                  (     1          0         -1      )
                  (     0          0         -1      )

 cart.    s( 2) = ( -1.0000000  0.0000000  0.0000000 )
                  (  0.0000000 -1.0000000  0.0000000 )
                  (  0.0000000  0.0000000  1.0000000 )


      isym =  3     180 deg rotation - cart. axis [0,1,0]        

 cryst.   s( 3) = (    -1          0          0      )
                  (    -1          0          1      )
                  (    -1          1          0      )

 cart.    s( 3) = ( -1.0000000  0.0000000  0.0000000 )
                  (  0.0000000  1.0000000  0.0000000 )
                  (  0.0000000  0.0000000 -1.0000000 )


      isym =  4     180 deg rotation - cart. axis [1,0,0]        

 cryst.   s( 4) = (     0         -1          1      )
                  (     0         -1          0      )
                  (     1         -1          0      )

 cart.    s( 4) = (  1.0000000  0.0000000  0.0000000 )
                  (  0.0000000 -1.0000000  0.0000000 )
                  (  0.0000000  0.0000000 -1.0000000 )


      isym =  5     180 deg rotation - cart. axis [1,1,0]        

 cryst.   s( 5) = (     0         -1          0      )
                  (    -1          0          0      )
                  (     0          0         -1      )

 cart.    s( 5) = (  0.0000000  1.0000000  0.0000000 )
                  (  1.0000000  0.0000000  0.0000000 )
                  (  0.0000000  0.0000000 -1.0000000 )


      isym =  6     180 deg rotation - cart. axis [1,-1,0]       

 cryst.   s( 6) = (    -1          0          1      )
                  (     0         -1          1      )
                  (     0          0          1      )

 cart.    s( 6) = (  0.0000000 -1.0000000  0.0000000 )
                  ( -1.0000000  0.0000000  0.0000000 )
                  (  0.0000000  0.0000000 -1.0000000 )


      isym =  7      90 deg rotation - cart. axis [0,0,-1]       

 cryst.   s( 7) = (     0          1          0      )
                  (     0          1         -1      )
                  (    -1          1          0      )

 cart.    s( 7) = (  0.0000000  1.0000000  0.0000000 )
                  ( -1.0000000  0.0000000  0.0000000 )
                  (  0.0000000  0.0000000  1.0000000 )


      isym =  8      90 deg rotation - cart. axis [0,0,1]        

 cryst.   s( 8) = (     1          0         -1      )
                  (     1          0          0      )
                  (     1         -1          0      )

 cart.    s( 8) = (  0.0000000 -1.0000000  0.0000000 )
                  (  1.0000000  0.0000000  0.0000000 )
                  (  0.0000000  0.0000000  1.0000000 )


      isym =  9     180 deg rotation - cart. axis [1,0,1]        

 cryst.   s( 9) = (    -1          0          0      )
                  (     0          0         -1      )
                  (     0         -1          0      )

 cart.    s( 9) = (  0.0000000  0.0000000  1.0000000 )
                  (  0.0000000 -1.0000000  0.0000000 )
                  (  1.0000000  0.0000000  0.0000000 )


      isym = 10     180 deg rotation - cart. axis [-1,0,1]       

 cryst.   s(10) = (     1          0          0      )
                  (     1         -1          0      )
                  (     1          0         -1      )

 cart.    s(10) = (  0.0000000  0.0000000 -1.0000000 )
                  (  0.0000000 -1.0000000  0.0000000 )
                  ( -1.0000000  0.0000000  0.0000000 )


      isym = 11      90 deg rotation - cart. axis [0,1,0]        

 cryst.   s(11) = (     0          1         -1      )
                  (    -1          1          0      )
                  (     0          1          0      )

 cart.    s(11) = (  0.0000000  0.0000000  1.0000000 )
                  (  0.0000000  1.0000000  0.0000000 )
                  ( -1.0000000  0.0000000  0.0000000 )


      isym = 12      90 deg rotation - cart. axis [0,-1,0]       

 cryst.   s(12) = (     0         -1          1      )
                  (     0          0          1      )
                  (    -1          0          1      )

 cart.    s(12) = (  0.0000000  0.0000000 -1.0000000 )
                  (  0.0000000  1.0000000  0.0000000 )
                  (  1.0000000  0.0000000  0.0000000 )


      isym = 13     180 deg rotation - cart. axis [0,1,1]        

 cryst.   s(13) = (    -1          1          0      )
                  (     0          1          0      )
                  (     0          1         -1      )

 cart.    s(13) = ( -1.0000000  0.0000000  0.0000000 )
                  (  0.0000000  0.0000000  1.0000000 )
                  (  0.0000000  1.0000000  0.0000000 )


      isym = 14     180 deg rotation - cart. axis [0,1,-1]       

 cryst.   s(14) = (     0          0         -1      )
                  (     0         -1          0      )
                  (    -1          0          0      )

 cart.    s(14) = ( -1.0000000  0.0000000  0.0000000 )
                  (  0.0000000  0.0000000 -1.0000000 )
                  (  0.0000000 -1.0000000  0.0000000 )


      isym = 15      90 deg rotation - cart. axis [-1,0,0]       

 cryst.   s(15) = (     0          0          1      )
                  (    -1          0          1      )
                  (     0         -1          1      )

 cart.    s(15) = (  1.0000000  0.0000000  0.0000000 )
                  (  0.0000000  0.0000000  1.0000000 )
                  (  0.0000000 -1.0000000  0.0000000 )


      isym = 16      90 deg rotation - cart. axis [1,0,0]        

 cryst.   s(16) = (     1         -1          0      )
                  (     1          0         -1      )
                  (     1          0          0      )

 cart.    s(16) = (  1.0000000  0.0000000  0.0000000 )
                  (  0.0000000  0.0000000 -1.0000000 )
                  (  0.0000000  1.0000000  0.0000000 )


      isym = 17     120 deg rotation - cart. axis [-1,-1,-1]     

 cryst.   s(17) = (    -1          0          1      )
                  (    -1          1          0      )
                  (    -1          0          0      )

 cart.    s(17) = (  0.0000000  1.0000000  0.0000000 )
                  (  0.0000000  0.0000000  1.0000000 )
                  (  1.0000000  0.0000000  0.0000000 )


      isym = 18     120 deg rotation - cart. axis [-1,1,1]       

 cryst.   s(18) = (     0          1          0      )
                  (     0          0          1      )
                  (     1          0          0      )

 cart.    s(18) = (  0.0000000 -1.0000000  0.0000000 )
                  (  0.0000000  0.0000000  1.0000000 )
                  ( -1.0000000  0.0000000  0.0000000 )


      isym = 19     120 deg rotation - cart. axis [1,1,-1]       

 cryst.   s(19) = (     1          0         -1      )
                  (     0          0         -1      )
                  (     0          1         -1      )

 cart.    s(19) = (  0.0000000  1.0000000  0.0000000 )
                  (  0.0000000  0.0000000 -1.0000000 )
                  ( -1.0000000  0.0000000  0.0000000 )


      isym = 20     120 deg rotation - cart. axis [1,-1,1]       

 cryst.   s(20) = (     0         -1          0      )
                  (     1         -1          0      )
                  (     0         -1          1      )

 cart.    s(20) = (  0.0000000 -1.0000000  0.0000000 )
                  (  0.0000000  0.0000000 -1.0000000 )
                  (  1.0000000  0.0000000  0.0000000 )


      isym = 21     120 deg rotation - cart. axis [1,1,1]        

 cryst.   s(21) = (     0          0         -1      )
                  (     0          1         -1      )
                  (     1          0         -1      )

 cart.    s(21) = (  0.0000000  0.0000000  1.0000000 )
                  (  1.0000000  0.0000000  0.0000000 )
                  (  0.0000000  1.0000000  0.0000000 )


      isym = 22     120 deg rotation - cart. axis [-1,1,-1]      

 cryst.   s(22) = (    -1          1          0      )
                  (    -1          0          0      )
                  (    -1          0          1      )

 cart.    s(22) = (  0.0000000  0.0000000  1.0000000 )
                  ( -1.0000000  0.0000000  0.0000000 )
                  (  0.0000000 -1.0000000  0.0000000 )


      isym = 23     120 deg rotation - cart. axis [1,-1,-1]      

 cryst.   s(23) = (     0          0          1      )
                  (     1          0          0      )
                  (     0          1          0      )

 cart.    s(23) = (  0.0000000  0.0000000 -1.0000000 )
                  ( -1.0000000  0.0000000  0.0000000 )
                  (  0.0000000  1.0000000  0.0000000 )


      isym = 24     120 deg rotation - cart. axis [-1,-1,1]      

 cryst.   s(24) = (     1         -1          0      )
                  (     0         -1          1      )
                  (     0         -1          0      )

 cart.    s(24) = (  0.0000000  0.0000000 -1.0000000 )
                  (  1.0000000  0.0000000  0.0000000 )
                  (  0.0000000 -1.0000000  0.0000000 )


      isym = 25     inversion                                    

 cryst.   s(25) = (    -1          0          0      )
                  (     0         -1          0      )
                  (     0          0         -1      )

 cart.    s(25) = ( -1.0000000  0.0000000  0.0000000 )
                  (  0.0000000 -1.0000000  0.0000000 )
                  (  0.0000000  0.0000000 -1.0000000 )


      isym = 26     inv. 180 deg rotation - cart. axis [0,0,1]   

 cryst.   s(26) = (     0         -1          1      )
                  (    -1          0          1      )
                  (     0          0          1      )

 cart.    s(26) = (  1.0000000  0.0000000  0.0000000 )
                  (  0.0000000  1.0000000  0.0000000 )
                  (  0.0000000  0.0000000 -1.0000000 )


      isym = 27     inv. 180 deg rotation - cart. axis [0,1,0]   

 cryst.   s(27) = (     1          0          0      )
                  (     1          0         -1      )
                  (     1         -1          0      )

 cart.    s(27) = (  1.0000000  0.0000000  0.0000000 )
                  (  0.0000000 -1.0000000  0.0000000 )
                  (  0.0000000  0.0000000  1.0000000 )


      isym = 28     inv. 180 deg rotation - cart. axis [1,0,0]   

 cryst.   s(28) = (     0          1         -1      )
                  (     0          1          0      )
                  (    -1          1          0      )

 cart.    s(28) = ( -1.0000000  0.0000000  0.0000000 )
                  (  0.0000000  1.0000000  0.0000000 )
                  (  0.0000000  0.0000000  1.0000000 )


      isym = 29     inv. 180 deg rotation - cart. axis [1,1,0]   

 cryst.   s(29) = (     0          1          0      )
                  (     1          0          0      )
                  (     0          0          1      )

 cart.    s(29) = (  0.0000000 -1.0000000  0.0000000 )
                  ( -1.0000000  0.0000000  0.0000000 )
                  (  0.0000000  0.0000000  1.0000000 )


      isym = 30     inv. 180 deg rotation - cart. axis [1,-1,0]  

 cryst.   s(30) = (     1          0         -1      )
                  (     0          1         -1      )
                  (     0          0         -1      )

 cart.    s(30) = (  0.0000000  1.0000000  0.0000000 )
                  (  1.0000000  0.0000000  0.0000000 )
                  (  0.0000000  0.0000000  1.0000000 )


      isym = 31     inv.  90 deg rotation - cart. axis [0,0,-1]  

 cryst.   s(31) = (     0         -1          0      )
                  (     0         -1          1      )
                  (     1         -1          0      )

 cart.    s(31) = (  0.0000000 -1.0000000  0.0000000 )
                  (  1.0000000  0.0000000  0.0000000 )
                  (  0.0000000  0.0000000 -1.0000000 )


      isym = 32     inv.  90 deg rotation - cart. axis [0,0,1]   

 cryst.   s(32) = (    -1          0          1      )
                  (    -1          0          0      )
                  (    -1          1          0      )

 cart.    s(32) = (  0.0000000  1.0000000  0.0000000 )
                  ( -1.0000000  0.0000000  0.0000000 )
                  (  0.0000000  0.0000000 -1.0000000 )


      isym = 33     inv. 180 deg rotation - cart. axis [1,0,1]   

 cryst.   s(33) = (     1          0          0      )
                  (     0          0          1      )
                  (     0          1          0      )

 cart.    s(33) = (  0.0000000  0.0000000 -1.0000000 )
                  (  0.0000000  1.0000000  0.0000000 )
                  ( -1.0000000  0.0000000  0.0000000 )


      isym = 34     inv. 180 deg rotation - cart. axis [-1,0,1]  

 cryst.   s(34) = (    -1          0          0      )
                  (    -1          1          0      )
                  (    -1          0          1      )

 cart.    s(34) = (  0.0000000  0.0000000  1.0000000 )
                  (  0.0000000  1.0000000  0.0000000 )
                  (  1.0000000  0.0000000  0.0000000 )


      isym = 35     inv.  90 deg rotation - cart. axis [0,1,0]   

 cryst.   s(35) = (     0         -1          1      )
                  (     1         -1          0      )
                  (     0         -1          0      )

 cart.    s(35) = (  0.0000000  0.0000000 -1.0000000 )
                  (  0.0000000 -1.0000000  0.0000000 )
                  (  1.0000000  0.0000000  0.0000000 )


      isym = 36     inv.  90 deg rotation - cart. axis [0,-1,0]  

 cryst.   s(36) = (     0          1         -1      )
                  (     0          0         -1      )
                  (     1          0         -1      )

 cart.    s(36) = (  0.0000000  0.0000000  1.0000000 )
                  (  0.0000000 -1.0000000  0.0000000 )
                  ( -1.0000000  0.0000000  0.0000000 )


      isym = 37     inv. 180 deg rotation - cart. axis [0,1,1]   

 cryst.   s(37) = (     1         -1          0      )
                  (     0         -1          0      )
                  (     0         -1          1      )

 cart.    s(37) = (  1.0000000  0.0000000  0.0000000 )
                  (  0.0000000  0.0000000 -1.0000000 )
                  (  0.0000000 -1.0000000  0.0000000 )


      isym = 38     inv. 180 deg rotation - cart. axis [0,1,-1]  

 cryst.   s(38) = (     0          0          1      )
                  (     0          1          0      )
                  (     1          0          0      )

 cart.    s(38) = (  1.0000000  0.0000000  0.0000000 )
                  (  0.0000000  0.0000000  1.0000000 )
                  (  0.0000000  1.0000000  0.0000000 )


      isym = 39     inv.  90 deg rotation - cart. axis [-1,0,0]  

 cryst.   s(39) = (     0          0         -1      )
                  (     1          0         -1      )
                  (     0          1         -1      )

 cart.    s(39) = ( -1.0000000  0.0000000  0.0000000 )
                  (  0.0000000  0.0000000 -1.0000000 )
                  (  0.0000000  1.0000000  0.0000000 )


      isym = 40     inv.  90 deg rotation - cart. axis [1,0,0]   

 cryst.   s(40) = (    -1          1          0      )
                  (    -1          0          1      )
                  (    -1          0          0      )

 cart.    s(40) = ( -1.0000000  0.0000000  0.0000000 )
                  (  0.0000000  0.0000000  1.0000000 )
                  (  0.0000000 -1.0000000  0.0000000 )


      isym = 41     inv. 120 deg rotation - cart. axis [-1,-1,-1]

 cryst.   s(41) = (     1          0         -1      )
                  (     1         -1          0      )
                  (     1          0          0      )

 cart.    s(41) = (  0.0000000 -1.0000000  0.0000000 )
                  (  0.0000000  0.0000000 -1.0000000 )
                  ( -1.0000000  0.0000000  0.0000000 )


      isym = 42     inv. 120 deg rotation - cart. axis [-1,1,1]  

 cryst.   s(42) = (     0         -1          0      )
                  (     0          0         -1      )
                  (    -1          0          0      )

 cart.    s(42) = (  0.0000000  1.0000000  0.0000000 )
                  (  0.0000000  0.0000000 -1.0000000 )
                  (  1.0000000  0.0000000  0.0000000 )


      isym = 43     inv. 120 deg rotation - cart. axis [1,1,-1]  

 cryst.   s(43) = (    -1          0          1      )
                  (     0          0          1      )
                  (     0         -1          1      )

 cart.    s(43) = (  0.0000000 -1.0000000  0.0000000 )
                  (  0.0000000  0.0000000  1.0000000 )
                  (  1.0000000  0.0000000  0.0000000 )


      isym = 44     inv. 120 deg rotation - cart. axis [1,-1,1]  

 cryst.   s(44) = (     0          1          0      )
                  (    -1          1          0      )
                  (     0          1         -1      )

 cart.    s(44) = (  0.0000000  1.0000000  0.0000000 )
                  (  0.0000000  0.0000000  1.0000000 )
                  ( -1.0000000  0.0000000  0.0000000 )


      isym = 45     inv. 120 deg rotation - cart. axis [1,1,1]   

 cryst.   s(45) = (     0          0          1      )
                  (     0         -1          1      )
                  (    -1          0          1      )

 cart.    s(45) = (  0.0000000  0.0000000 -1.0000000 )
                  ( -1.0000000  0.0000000  0.0000000 )
                  (  0.0000000 -1.0000000  0.0000000 )


      isym = 46     inv. 120 deg rotation - cart. axis [-1,1,-1] 

 cryst.   s(46) = (     1         -1          0      )
                  (     1          0          0      )
                  (     1          0         -1      )

 cart.    s(46) = (  0.0000000  0.0000000 -1.0000000 )
                  (  1.0000000  0.0000000  0.0000000 )
                  (  0.0000000  1.0000000  0.0000000 )


      isym = 47     inv. 120 deg rotation - cart. axis [1,-1,-1] 

 cryst.   s(47) = (     0          0         -1      )
                  (    -1          0          0      )
                  (     0         -1          0      )

 cart.    s(47) = (  0.0000000  0.0000000  1.0000000 )
                  (  1.0000000  0.0000000  0.0000000 )
                  (  0.0000000 -1.0000000  0.0000000 )


      isym = 48     inv. 120 deg rotation - cart. axis [-1,-1,1] 

 cryst.   s(48) = (    -1          1          0      )
                  (     0          1         -1      )
                  (     0          1          0      )

 cart.    s(48) = (  0.0000000  0.0000000  1.0000000 )
                  ( -1.0000000  0.0000000  0.0000000 )
                  (  0.0000000  1.0000000  0.0000000 )


     point group O_h (m-3m) 
     there are 10 classes
     the character table:

       E     8C3   6C2'  6C4   3C2   i     6S4   8S6   3s_h  6s_d 
A_1g   1.00  1.00  1.00  1.00  1.00  1.00  1.00  1.00  1.00  1.00
A_2g   1.00  1.00 -1.00 -1.00  1.00  1.00 -1.00  1.00  1.00 -1.00
E_g    2.00 -1.00  0.00  0.00  2.00  2.00  0.00 -1.00  2.00  0.00
T_1g   3.00  0.00 -1.00  1.00 -1.00  3.00  1.00  0.00 -1.00 -1.00
T_2g   3.00  0.00  1.00 -1.00 -1.00  3.00 -1.00  0.00 -1.00  1.00
A_1u   1.00  1.00  1.00  1.00  1.00 -1.00 -1.00 -1.00 -1.00 -1.00
A_2u   1.00  1.00 -1.00 -1.00  1.00 -1.00  1.00 -1.00 -1.00  1.00
E_u    2.00 -1.00  0.00  0.00  2.00 -2.00  0.00  1.00 -2.00  0.00
T_1u   3.00  0.00 -1.00  1.00 -1.00 -3.00 -1.00  0.00  1.00  1.00
T_2u   3.00  0.00  1.00 -1.00 -1.00 -3.00  1.00  0.00  1.00 -1.00

     the symmetry operations in each class:
     E        1
     3C2      2    4    3
     6C2'     5    6   14   13   10    9
     6C4      7    8   15   16   12   11
     8C3     17   19   20   18   24   21   22   23
     i       25
     3s_h    26   28   27
     6s_d    29   30   38   37   34   33
     6S4     31   32   39   40   36   35
     8S6     41   43   44   42   48   45   46   47

   Cartesian axes

     site n.     atom                  positions (alat units)
         1           Ni  tau(   1) = (   0.0000000   0.0000000   0.0000000  )

   Crystallographic axes

     site n.     atom                  positions (cryst. coord.)
         1           Ni  tau(   1) = (  0.0000000  0.0000000  0.0000000  )

     number of k points=    28  Marzari-Vanderbilt smearing, width (Ry)=  0.0200
                       cart. coord. in units 2pi/alat
        k(    1) = (  -0.0833333   0.0833333   0.0833333), wk =   0.0185185
        k(    2) = (  -0.2500000   0.2500000  -0.0833333), wk =   0.0555556
        k(    3) = (  -0.4166667   0.4166667  -0.2500000), wk =   0.0555556
        k(    4) = (   0.4166667  -0.4166667   0.5833333), wk =   0.0555556
        k(    5) = (   0.2500000  -0.2500000   0.4166667), wk =   0.0555556
        k(    6) = (   0.0833333  -0.0833333   0.2500000), wk =   0.0555556
        k(    7) = (  -0.0833333   0.4166667   0.0833333), wk =   0.0555556
        k(    8) = (  -0.2500000   0.5833333  -0.0833333), wk =   0.1111111
        k(    9) = (   0.5833333  -0.2500000   0.7500000), wk =   0.1111111
        k(   10) = (   0.4166667  -0.0833333   0.5833333), wk =   0.1111111
        k(   11) = (   0.2500000   0.0833333   0.4166667), wk =   0.1111111
        k(   12) = (  -0.0833333   0.7500000   0.0833333), wk =   0.0555556
        k(   13) = (   0.7500000  -0.0833333   0.9166667), wk =   0.1111111
        k(   14) = (   0.5833333   0.0833333   0.7500000), wk =   0.1111111
        k(   15) = (   0.4166667   0.2500000   0.5833333), wk =   0.1111111
        k(   16) = (  -0.0833333  -0.9166667   0.0833333), wk =   0.0555556
        k(   17) = (  -0.2500000  -0.7500000  -0.0833333), wk =   0.1111111
        k(   18) = (  -0.0833333  -0.5833333   0.0833333), wk =   0.0555556
        k(   19) = (  -0.2500000   0.2500000   0.2500000), wk =   0.0185185
        k(   20) = (  -0.4166667   0.4166667   0.0833333), wk =   0.0555556
        k(   21) = (   0.4166667  -0.4166667   0.9166667), wk =   0.0555556
        k(   22) = (   0.2500000  -0.2500000   0.7500000), wk =   0.0555556
        k(   23) = (  -0.2500000   0.5833333   0.2500000), wk =   0.0555556
        k(   24) = (   0.5833333  -0.2500000   1.0833333), wk =   0.1111111
        k(   25) = (   0.4166667  -0.0833333   0.9166667), wk =   0.1111111
        k(   26) = (  -0.2500000  -1.0833333   0.2500000), wk =   0.0555556
        k(   27) = (  -0.4166667   0.4166667   0.4166667), wk =   0.0185185
        k(   28) = (   0.4166667  -0.4166667   1.2500000), wk =   0.0555556

                       cryst. coord.
        k(    1) = (   0.0833333   0.0833333   0.0833333), wk =   0.0185185
        k(    2) = (   0.0833333   0.0833333   0.2500000), wk =   0.0555556
        k(    3) = (   0.0833333   0.0833333   0.4166667), wk =   0.0555556
        k(    4) = (   0.0833333   0.0833333  -0.4166667), wk =   0.0555556
        k(    5) = (   0.0833333   0.0833333  -0.2500000), wk =   0.0555556
        k(    6) = (   0.0833333   0.0833333  -0.0833333), wk =   0.0555556
        k(    7) = (   0.0833333   0.2500000   0.2500000), wk =   0.0555556
        k(    8) = (   0.0833333   0.2500000   0.4166667), wk =   0.1111111
        k(    9) = (   0.0833333   0.2500000  -0.4166667), wk =   0.1111111
        k(   10) = (   0.0833333   0.2500000  -0.2500000), wk =   0.1111111
        k(   11) = (   0.0833333   0.2500000  -0.0833333), wk =   0.1111111
        k(   12) = (   0.0833333   0.4166667   0.4166667), wk =   0.0555556
        k(   13) = (   0.0833333   0.4166667  -0.4166667), wk =   0.1111111
        k(   14) = (   0.0833333   0.4166667  -0.2500000), wk =   0.1111111
        k(   15) = (   0.0833333   0.4166667  -0.0833333), wk =   0.1111111
        k(   16) = (   0.0833333  -0.4166667  -0.4166667), wk =   0.0555556
        k(   17) = (   0.0833333  -0.4166667  -0.2500000), wk =   0.1111111
        k(   18) = (   0.0833333  -0.2500000  -0.2500000), wk =   0.0555556
        k(   19) = (   0.2500000   0.2500000   0.2500000), wk =   0.0185185
        k(   20) = (   0.2500000   0.2500000   0.4166667), wk =   0.0555556
        k(   21) = (   0.2500000   0.2500000  -0.4166667), wk =   0.0555556
        k(   22) = (   0.2500000   0.2500000  -0.2500000), wk =   0.0555556
        k(   23) = (   0.2500000   0.4166667   0.4166667), wk =   0.0555556
        k(   24) = (   0.2500000   0.4166667  -0.4166667), wk =   0.1111111
        k(   25) = (   0.2500000   0.4166667  -0.2500000), wk =   0.1111111
        k(   26) = (   0.2500000  -0.4166667  -0.4166667), wk =   0.0555556
        k(   27) = (   0.4166667   0.4166667   0.4166667), wk =   0.0185185
        k(   28) = (   0.4166667   0.4166667  -0.4166667), wk =   0.0555556

     Dense  grid:     5209 G-vectors     FFT dimensions: (  25,  25,  25)

     Largest allocated arrays     est. size (Mb)     dimensions
        Kohn-Sham Wavefunctions         0.13 Mb     (     666,   13)
        NL pseudopotentials             0.18 Mb     (     666,   18)
        Each V/rho on FFT grid          0.24 Mb     (   15625)
        Each G-vector array             0.04 Mb     (    5209)
        G-vector shells                 0.00 Mb     (     100)
     Largest temporary arrays     est. size (Mb)     dimensions
        Auxiliary wavefunctions         0.53 Mb     (     666,   52)
        Each subspace H/S matrix        0.04 Mb     (      52,   52)
        Each <psi_i|beta_j> matrix      0.00 Mb     (      18,   13)
        Arrays for rho mixing           1.91 Mb     (   15625,    8)

     Check: negative/imaginary core charge=   -0.000029    0.000000

     Initial potential from superposition of free atoms

     starting charge   17.99977, renormalised to   18.00000
     Starting wfc are   10 randomized atomic wfcs +    3 random wfc

     total cpu time spent up to now is        0.7 secs

     per-process dynamical memory:    13.4 Mb

     Self-consistent Calculation

     iteration #  1     ecut=    40.00 Ry     beta=0.70
     Davidson diagonalization with overlap
     ethr =  1.00E-02,  avg # of iterations =  5.5

     total cpu time spent up to now is        1.1 secs

     total energy              =    -338.55300370 Ry
     Harris-Foulkes estimate   =    -338.75767857 Ry
     estimated scf accuracy    <       0.26892725 Ry

     iteration #  2     ecut=    40.00 Ry     beta=0.70
     Davidson diagonalization with overlap
     ethr =  1.49E-03,  avg # of iterations =  3.0

     total cpu time spent up to now is        1.5 secs

     total energy              =    -338.32009646 Ry
     Harris-Foulkes estimate   =    -339.15415904 Ry
     estimated scf accuracy    <       3.35241937 Ry

     iteration #  3     ecut=    40.00 Ry     beta=0.70
     Davidson diagonalization with overlap
     ethr =  1.49E-03,  avg # of iterations =  3.0

     total cpu time spent up to now is        2.0 secs

     total energy              =    -338.71039263 Ry
     Harris-Foulkes estimate   =    -338.71211754 Ry
     estimated scf accuracy    <       0.00685946 Ry

     iteration #  4     ecut=    40.00 Ry     beta=0.70
     Davidson diagonalization with overlap
     ethr =  3.81E-05,  avg # of iterations =  1.6

     total cpu time spent up to now is        2.3 secs

     total energy              =    -338.71142437 Ry
     Harris-Foulkes estimate   =    -338.71143996 Ry
     estimated scf accuracy    <       0.00008379 Ry

     iteration #  5     ecut=    40.00 Ry     beta=0.70
     Davidson diagonalization with overlap
     ethr =  4.65E-07,  avg # of iterations =  2.4

     total cpu time spent up to now is        2.6 secs

     total energy              =    -338.71144099 Ry
     Harris-Foulkes estimate   =    -338.71144259 Ry
     estimated scf accuracy    <       0.00000657 Ry

     iteration #  6     ecut=    40.00 Ry     beta=0.70
     Davidson diagonalization with overlap
     ethr =  3.65E-08,  avg # of iterations =  1.3

     total cpu time spent up to now is        2.9 secs

     End of self-consistent calculation

          k =-0.0833 0.0833 0.0833 (   646 PWs)   bands (ev):

   -96.1592 -56.0452 -55.9848 -55.9848   1.3382   5.4157   5.4783   5.4783
     5.7291   5.7291  20.6403  22.3917  22.3917

     occupation numbers 
     1.0000   1.0000   1.0000   1.0000   1.0000   1.0261   1.0446   1.0446
     1.0383   1.0383   0.0000   0.0000   0.0000

          k =-0.2500 0.2500-0.0833 (   653 PWs)   bands (ev):

   -96.1602 -56.0888 -56.0610 -56.0019   2.1645   5.2846   5.5084   5.5166
     5.6601   5.7806  16.7598  19.0735  22.8782

     occupation numbers 
     1.0000   1.0000   1.0000   1.0000   1.0000   1.0056   1.0549   1.0577
     1.0794   0.9714   0.0000   0.0000   0.0000

          k =-0.4167 0.4167-0.2500 (   647 PWs)   bands (ev):

   -96.1588 -56.0833 -55.9919 -55.9788   3.8681   5.4271   5.4734   5.5099
     5.8321   6.0990  11.4800  18.5504  21.1028

     occupation numbers 
     1.0000   1.0000   1.0000   1.0000   1.0000   1.0291   1.0430   1.0554
     0.8726   0.2126   0.0000   0.0000   0.0000

          k = 0.4167-0.4167 0.5833 (   654 PWs)   bands (ev):

   -96.1595 -56.1661 -56.0284 -55.9757   4.3715   5.4019   5.4683   5.7168
     5.9966   7.0366   8.7880  19.2043  19.7130

     occupation numbers 
     1.0000   1.0000   1.0000   1.0000   1.0000   1.0228   1.0414   1.0495
     0.4406   0.0000   0.0000   0.0000   0.0000

          k = 0.2500-0.2500 0.4167 (   641 PWs)   bands (ev):

   -96.1581 -56.0039 -55.9823 -55.9666   3.2965   5.3443   5.4983   5.5430
     5.8799   5.8896  13.1249  19.5127  20.7068

     occupation numbers 
     1.0000   1.0000   1.0000   1.0000   1.0000   1.0121   1.0514   1.0666
     0.7571   0.7318   0.0000   0.0000   0.0000

          k = 0.0833-0.0833 0.2500 (   654 PWs)   bands (ev):

   -96.1605 -56.1117 -56.0414 -56.0123   1.7545   5.3275   5.4766   5.5006
     5.6627   5.7313  18.7156  20.4955  21.6837

     occupation numbers 
     1.0000   1.0000   1.0000   1.0000   1.0000   1.0099   1.0441   1.0522
     1.0787   1.0361   0.0000   0.0000   0.0000

          k =-0.0833 0.4167 0.0833 (   659 PWs)   bands (ev):

   -96.1610 -56.1098 -56.0879 -56.0607   2.5617   5.2090   5.5184   5.5198
     5.6754   5.7714  17.0572  18.6932  20.3229

     occupation numbers 
     1.0000   1.0000   1.0000   1.0000   1.0000   1.0018   1.0584   1.0589
     1.0745   0.9858   0.0000   0.0000   0.0000

          k =-0.2500 0.5833-0.0833 (   653 PWs)   bands (ev):

   -96.1596 -56.0934 -56.0481 -56.0202   3.9467   5.1246   5.3981   5.6588
     5.8490   6.1628  13.8292  16.1296  17.6654

     occupation numbers 
     1.0000   1.0000   1.0000   1.0000   1.0000   1.0004   1.0219   1.0797
     0.8341   0.1187   0.0000   0.0000   0.0000

          k = 0.5833-0.2500 0.7500 (   661 PWs)   bands (ev):

   -96.1604 -56.1816 -56.1062 -56.0094   4.7459   5.1504   5.3713   5.5923
     5.9316   8.1280   9.3773  15.4408  16.6739

     occupation numbers 
     1.0000   1.0000   1.0000   1.0000   1.0000   1.0007   1.0165   1.0798
     0.6174   0.0000   0.0000   0.0000   0.0000

          k = 0.4167-0.0833 0.5833 (   657 PWs)   bands (ev):

   -96.1602 -56.1225 -56.1001 -56.0128   4.4095   5.1912   5.3106   5.6260
     5.7816   6.5927  12.2331  14.6575  18.3339

     occupation numbers 
     1.0000   1.0000   1.0000   1.0000   1.0000   1.0014   1.0080   1.0833
     0.9698   0.0002   0.0000   0.0000   0.0000

          k = 0.2500 0.0833 0.4167 (   648 PWs)   bands (ev):

   -96.1593 -56.0789 -56.0096 -55.9884   2.9475   5.2371   5.4823   5.5767
     5.7219   5.9257  15.1237  17.4513  21.0587

     occupation numbers 
     1.0000   1.0000   1.0000   1.0000   1.0000   1.0028   1.0460   1.0764
     1.0451   0.6337   0.0000   0.0000   0.0000

          k =-0.0833 0.7500 0.0833 (   656 PWs)   bands (ev):

   -96.1598 -56.1481 -56.0503 -56.0205   4.4420   4.9856   5.7384   5.8281
     5.9452   6.4597  13.8697  14.8978  16.1850

     occupation numbers 
     1.0000   1.0000   1.0000   1.0000   1.0000   1.0000   1.0286   0.8812
     0.5798   0.0020   0.0000   0.0000   0.0000

          k = 0.7500-0.0833 0.9167 (   659 PWs)   bands (ev):

   -96.1599 -56.1499 -56.0647 -56.0538   4.7527   4.9591   5.5804   5.8413
     5.9678   8.6538  11.5006  12.6265  14.8421

     occupation numbers 
     1.0000   1.0000   1.0000   1.0000   1.0000   1.0000   1.0773   0.8519
     0.5175   0.0000   0.0000   0.0000   0.0000

          k = 0.5833 0.0833 0.7500 (   661 PWs)   bands (ev):

   -96.1603 -56.1530 -56.1198 -56.0284   4.9598   5.0542   5.2868   5.6732
     5.8946   8.9298  10.1070  12.7093  16.2152

     occupation numbers 
     1.0000   1.0000   1.0000   1.0000   1.0000   1.0001   1.0058   1.0754
     0.7185   0.0000   0.0000   0.0000   0.0000

          k = 0.4167 0.2500 0.5833 (   652 PWs)   bands (ev):

   -96.1593 -56.1379 -56.0299 -55.9769   4.4051   5.3558   5.4397   5.5517
     5.9246   6.7155  10.2277  17.3485  18.6877

     occupation numbers 
     1.0000   1.0000   1.0000   1.0000   1.0000   1.0139   1.0326   1.0694
     0.6369   0.0000   0.0000   0.0000   0.0000

          k =-0.0833-0.9167 0.0833 (   660 PWs)   bands (ev):

   -96.1602 -56.1693 -56.0681 -56.0515   4.6015   4.8881   5.8713   5.8975
     5.9826   8.0305  11.2684  14.3416  15.6360

     occupation numbers 
     1.0000   1.0000   1.0000   1.0000   1.0000   1.0000   0.7792   0.7108
     0.4775   0.0000   0.0000   0.0000   0.0000

          k =-0.2500-0.7500-0.0833 (   660 PWs)   bands (ev):

   -96.1605 -56.1565 -56.0769 -56.0591   4.6192   5.0056   5.4325   5.7724
     5.9327   6.9808  12.8876  14.3480  15.3718

     occupation numbers 
     1.0000   1.0000   1.0000   1.0000   1.0000   1.0000   1.0306   0.9843
     0.6144   0.0000   0.0000   0.0000   0.0000

          k =-0.0833-0.5833 0.0833 (   652 PWs)   bands (ev):

   -96.1596 -56.0870 -56.0373 -56.0236   3.6471   5.1004   5.5150   5.6962
     5.8760   5.8865  15.7081  17.2110  17.2311

     occupation numbers 
     1.0000   1.0000   1.0000   1.0000   1.0000   1.0003   1.0572   1.0642
     0.7673   0.7399   0.0000   0.0000   0.0000

          k =-0.2500 0.2500 0.2500 (   646 PWs)   bands (ev):

   -96.1592 -56.0352 -56.0026 -56.0026   2.5590   5.3748   5.5074   5.5074
     5.7625   5.7625  14.7666  21.1936  21.1936

     occupation numbers 
     1.0000   1.0000   1.0000   1.0000   1.0000   1.0172   1.0546   1.0546
     0.9986   0.9986   0.0000   0.0000   0.0000

          k =-0.4167 0.4167 0.0833 (   645 PWs)   bands (ev):

   -96.1587 -56.0754 -55.9914 -55.9633   3.6450   5.2494   5.4458   5.6077
     5.7128   6.1599  13.4997  15.8991  21.1553

     occupation numbers 
     1.0000   1.0000   1.0000   1.0000   1.0000   1.0034   1.0344   1.0821
     1.0527   0.1221   0.0000   0.0000   0.0000

          k = 0.4167-0.4167 0.9167 (   666 PWs)   bands (ev):

   -96.1612 -56.1855 -56.1321 -56.0637   4.7510   5.1896   5.2517   5.6042
     5.7785   7.4588  10.9794  13.4841  18.6104

     occupation numbers 
     1.0000   1.0000   1.0000   1.0000   1.0000   1.0013   1.0035   1.0817
     0.9748   0.0000   0.0000   0.0000   0.0000

          k = 0.2500-0.2500 0.7500 (   660 PWs)   bands (ev):

   -96.1603 -56.1416 -56.1013 -56.0387   4.6962   5.0575   5.3994   5.6361
     5.9926   7.3821  10.9412  14.7563  17.1808

     occupation numbers 
     1.0000   1.0000   1.0000   1.0000   1.0000   1.0001   1.0222   1.0831
     0.4510   0.0000   0.0000   0.0000   0.0000

          k =-0.2500 0.5833 0.2500 (   653 PWs)   bands (ev):

   -96.1595 -56.0970 -56.0449 -56.0147   4.1533   5.2240   5.3975   5.5516
     5.9726   6.2636  11.8337  17.9058  18.1417

     occupation numbers 
     1.0000   1.0000   1.0000   1.0000   1.0000   1.0023   1.0218   1.0693
     0.5045   0.0384   0.0000   0.0000   0.0000

          k = 0.5833-0.2500 1.0833 (   661 PWs)   bands (ev):

   -96.1605 -56.1620 -56.1059 -56.0385   4.8545   5.0814   5.2429   5.7039
     5.8974   7.7760  11.3531  13.7539  15.2609

     occupation numbers 
     1.0000   1.0000   1.0000   1.0000   1.0000   1.0002   1.0031   1.0593
     0.7111   0.0000   0.0000   0.0000   0.0000

          k = 0.4167-0.0833 0.9167 (   665 PWs)   bands (ev):

   -96.1608 -56.1617 -56.1269 -56.0758   4.9113   5.0500   5.2655   5.7256
     5.9573   9.6192  10.8690  12.2625  13.6041

     occupation numbers 
     1.0000   1.0000   1.0000   1.0000   1.0000   1.0001   1.0043   1.0416
     0.5464   0.0000   0.0000   0.0000   0.0000

          k =-0.2500-1.0833 0.2500 (   664 PWs)   bands (ev):

   -96.1606 -56.1562 -56.1214 -56.0681   4.8709   4.9548   5.4501   5.7443
     5.9100   9.1823  10.4520  12.0506  16.6844

     occupation numbers 
     1.0000   1.0000   1.0000   1.0000   1.0000   1.0000   1.0356   1.0220
     0.6768   0.0000   0.0000   0.0000   0.0000

          k =-0.4167 0.4167 0.4167 (   646 PWs)   bands (ev):

   -96.1583 -56.1284 -55.9494 -55.9494   4.1453   5.4802   5.4802   5.9745
     5.9745   6.0000   9.8606  20.5780  20.5780

     occupation numbers 
     1.0000   1.0000   1.0000   1.0000   1.0000   1.0453   1.0453   0.4993
     0.4993   0.4317   0.0000   0.0000   0.0000

          k = 0.4167-0.4167 1.2500 (   658 PWs)   bands (ev):

   -96.1600 -56.1827 -56.0595 -56.0007   4.5778   5.2914   5.4793   5.5464
     5.9084   7.6575   9.0700  16.2651  18.9972

     occupation numbers 
     1.0000   1.0000   1.0000   1.0000   1.0000   1.0062   1.0450   1.0677
     0.6813   0.0000   0.0000   0.0000   0.0000

     the Fermi energy is     6.0122 ev

!    total energy              =    -338.71144182 Ry
     Harris-Foulkes estimate   =    -338.71144184 Ry
     estimated scf accuracy    <       0.00000002 Ry

     The total energy is the sum of the following terms:

     one-electron contribution =    -268.94760429 Ry
     hartree contribution      =     138.67684729 Ry
     xc contribution           =     -33.68140471 Ry
     ewald contribution        =    -174.76415440 Ry
     smearing contrib. (-TS)   =       0.00487429 Ry

     convergence has been achieved in   6 iterations

     Writing output data file Ni_exc2.save

     init_run     :      0.46s CPU      0.47s WALL (       1 calls)
     electrons    :      2.24s CPU      2.26s WALL (       1 calls)

     Called by init_run:
     wfcinit      :      0.10s CPU      0.11s WALL (       1 calls)
     potinit      :      0.01s CPU      0.01s WALL (       1 calls)

     Called by electrons:
     c_bands      :      1.80s CPU      1.81s WALL (       6 calls)
     sum_band     :      0.32s CPU      0.33s WALL (       6 calls)
     v_of_rho     :      0.05s CPU      0.05s WALL (       7 calls)
     v_h          :      0.00s CPU      0.00s WALL (       7 calls)
     v_xc         :      0.05s CPU      0.05s WALL (       7 calls)
     newd         :      0.09s CPU      0.09s WALL (       7 calls)
     mix_rho      :      0.00s CPU      0.00s WALL (       6 calls)

     Called by c_bands:
     init_us_2    :      0.07s CPU      0.07s WALL (     364 calls)
     cegterg      :      1.70s CPU      1.71s WALL (     168 calls)

     Called by sum_band:
     sum_band:bec :      0.00s CPU      0.00s WALL (     168 calls)
     addusdens    :      0.07s CPU      0.07s WALL (       6 calls)

     Called by *egterg:
     h_psi        :      1.13s CPU      1.14s WALL (     665 calls)
     s_psi        :      0.09s CPU      0.09s WALL (     665 calls)
     g_psi        :      0.01s CPU      0.01s WALL (     469 calls)
     cdiaghg      :      0.15s CPU      0.15s WALL (     637 calls)
     cegterg:over :      0.16s CPU      0.17s WALL (     469 calls)
     cegterg:upda :      0.10s CPU      0.10s WALL (     469 calls)
     cegterg:last :      0.06s CPU      0.06s WALL (     168 calls)

     Called by h_psi:
     h_psi:vloc   :      0.95s CPU      0.96s WALL (     665 calls)
     h_psi:vnl    :      0.18s CPU      0.18s WALL (     665 calls)
     add_vuspsi   :      0.09s CPU      0.09s WALL (     665 calls)

     General routines
     calbec       :      0.12s CPU      0.13s WALL (     833 calls)
     fft          :      0.01s CPU      0.01s WALL (      90 calls)
     fftw         :      0.94s CPU      0.95s WALL (   13942 calls)
     davcio       :      0.00s CPU      0.00s WALL (      28 calls)

     Parallel routines
     fft_scatter  :      0.09s CPU      0.09s WALL (   14032 calls)

     PWSCF        :     2.94s CPU         2.97s WALL


   This run was terminated on:   7:28:46  30Apr2020            

=------------------------------------------------------------------------------=
   JOB DONE.
=------------------------------------------------------------------------------=
