
     Program PWSCF v.5.1 starts on 18Feb2020 at 21:55:52 

     This program is part of the open-source Quantum ESPRESSO suite
     for quantum simulation of materials; please cite
         "P. Giannozzi et al., J. Phys.:Condens. Matter 21 395502 (2009);
          URL http://www.quantum-espresso.org", 
     in publications or presentations arising from this work. More details at
     http://www.quantum-espresso.org/quote

     Parallel version (MPI), running on     1 processors
     Waiting for input...
     Reading input from standard input

     Current dimensions of program PWSCF are:
     Max number of different atomic species (ntypx) = 10
     Max number of k-points (npk) =  40000
     Max angular momentum in pseudopotentials (lmaxx) =  3

     Subspace diagonalization in iterative solution of the eigenvalue problem:
     a serial algorithm will be used


     G-vector sticks info
     --------------------
     sticks:   dense  smooth     PW     G-vecs:    dense   smooth      PW
     Sum         253     253     91                 2565     2565     561



     bravais-lattice index     =            2
     lattice parameter (alat)  =       6.6590  a.u.
     unit-cell volume          =      73.8188 (a.u.)^3
     number of atoms/cell      =            1
     number of atomic types    =            1
     number of electrons       =        18.00
     number of Kohn-Sham states=           13
     kinetic-energy cutoff     =      40.0000  Ry
     charge density cutoff     =     160.0000  Ry
     convergence threshold     =      1.0E-06
     mixing beta               =       0.7000
     number of iterations used =            8  plain     mixing
     Exchange-correlation      = PBESOL ( 1  4 10  8 0)

     celldm(1)=   6.659000  celldm(2)=   0.000000  celldm(3)=   0.000000
     celldm(4)=   0.000000  celldm(5)=   0.000000  celldm(6)=   0.000000

     crystal axes: (cart. coord. in units of alat)
               a(1) = (  -0.500000   0.000000   0.500000 )  
               a(2) = (   0.000000   0.500000   0.500000 )  
               a(3) = (  -0.500000   0.500000   0.000000 )  

     reciprocal axes: (cart. coord. in units 2 pi/alat)
               b(1) = ( -1.000000 -1.000000  1.000000 )  
               b(2) = (  1.000000  1.000000  1.000000 )  
               b(3) = ( -1.000000  1.000000 -1.000000 )  


     PseudoPot. # 1 for Ni read from file:
     ../pseudo/Ni.pbesol-spn-rrkjus_psl.1.0.0.UPF
     MD5 check sum: 6fc0a587bf949a08f2faed986b854013
     Pseudo is Ultrasoft + core correction, Zval = 18.0
     Generated using "atomic" code by A. Dal Corso  v.6.3
     Using radial grid of 1195 points,  6 beta functions with: 
                l(1) =   0
                l(2) =   0
                l(3) =   1
                l(4) =   1
                l(5) =   2
                l(6) =   2
     Q(r) pseudized with 0 coefficients 


     atomic species   valence    mass     pseudopotential
        Ni            18.00    58.69000     Ni( 1.00)

     48 Sym. Ops., with inversion, found


                                    s                        frac. trans.

      isym =  1     identity                                     

 cryst.   s( 1) = (     1          0          0      )
                  (     0          1          0      )
                  (     0          0          1      )

 cart.    s( 1) = (  1.0000000  0.0000000  0.0000000 )
                  (  0.0000000  1.0000000  0.0000000 )
                  (  0.0000000  0.0000000  1.0000000 )


      isym =  2     180 deg rotation - cart. axis [0,0,1]        

 cryst.   s( 2) = (     0          1         -1      )
                  (     1          0         -1      )
                  (     0          0         -1      )

 cart.    s( 2) = ( -1.0000000  0.0000000  0.0000000 )
                  (  0.0000000 -1.0000000  0.0000000 )
                  (  0.0000000  0.0000000  1.0000000 )


      isym =  3     180 deg rotation - cart. axis [0,1,0]        

 cryst.   s( 3) = (    -1          0          0      )
                  (    -1          0          1      )
                  (    -1          1          0      )

 cart.    s( 3) = ( -1.0000000  0.0000000  0.0000000 )
                  (  0.0000000  1.0000000  0.0000000 )
                  (  0.0000000  0.0000000 -1.0000000 )


      isym =  4     180 deg rotation - cart. axis [1,0,0]        

 cryst.   s( 4) = (     0         -1          1      )
                  (     0         -1          0      )
                  (     1         -1          0      )

 cart.    s( 4) = (  1.0000000  0.0000000  0.0000000 )
                  (  0.0000000 -1.0000000  0.0000000 )
                  (  0.0000000  0.0000000 -1.0000000 )


      isym =  5     180 deg rotation - cart. axis [1,1,0]        

 cryst.   s( 5) = (     0         -1          0      )
                  (    -1          0          0      )
                  (     0          0         -1      )

 cart.    s( 5) = (  0.0000000  1.0000000  0.0000000 )
                  (  1.0000000  0.0000000  0.0000000 )
                  (  0.0000000  0.0000000 -1.0000000 )


      isym =  6     180 deg rotation - cart. axis [1,-1,0]       

 cryst.   s( 6) = (    -1          0          1      )
                  (     0         -1          1      )
                  (     0          0          1      )

 cart.    s( 6) = (  0.0000000 -1.0000000  0.0000000 )
                  ( -1.0000000  0.0000000  0.0000000 )
                  (  0.0000000  0.0000000 -1.0000000 )


      isym =  7      90 deg rotation - cart. axis [0,0,-1]       

 cryst.   s( 7) = (     0          1          0      )
                  (     0          1         -1      )
                  (    -1          1          0      )

 cart.    s( 7) = (  0.0000000  1.0000000  0.0000000 )
                  ( -1.0000000  0.0000000  0.0000000 )
                  (  0.0000000  0.0000000  1.0000000 )


      isym =  8      90 deg rotation - cart. axis [0,0,1]        

 cryst.   s( 8) = (     1          0         -1      )
                  (     1          0          0      )
                  (     1         -1          0      )

 cart.    s( 8) = (  0.0000000 -1.0000000  0.0000000 )
                  (  1.0000000  0.0000000  0.0000000 )
                  (  0.0000000  0.0000000  1.0000000 )


      isym =  9     180 deg rotation - cart. axis [1,0,1]        

 cryst.   s( 9) = (    -1          0          0      )
                  (     0          0         -1      )
                  (     0         -1          0      )

 cart.    s( 9) = (  0.0000000  0.0000000  1.0000000 )
                  (  0.0000000 -1.0000000  0.0000000 )
                  (  1.0000000  0.0000000  0.0000000 )


      isym = 10     180 deg rotation - cart. axis [-1,0,1]       

 cryst.   s(10) = (     1          0          0      )
                  (     1         -1          0      )
                  (     1          0         -1      )

 cart.    s(10) = (  0.0000000  0.0000000 -1.0000000 )
                  (  0.0000000 -1.0000000  0.0000000 )
                  ( -1.0000000  0.0000000  0.0000000 )


      isym = 11      90 deg rotation - cart. axis [0,1,0]        

 cryst.   s(11) = (     0          1         -1      )
                  (    -1          1          0      )
                  (     0          1          0      )

 cart.    s(11) = (  0.0000000  0.0000000  1.0000000 )
                  (  0.0000000  1.0000000  0.0000000 )
                  ( -1.0000000  0.0000000  0.0000000 )


      isym = 12      90 deg rotation - cart. axis [0,-1,0]       

 cryst.   s(12) = (     0         -1          1      )
                  (     0          0          1      )
                  (    -1          0          1      )

 cart.    s(12) = (  0.0000000  0.0000000 -1.0000000 )
                  (  0.0000000  1.0000000  0.0000000 )
                  (  1.0000000  0.0000000  0.0000000 )


      isym = 13     180 deg rotation - cart. axis [0,1,1]        

 cryst.   s(13) = (    -1          1          0      )
                  (     0          1          0      )
                  (     0          1         -1      )

 cart.    s(13) = ( -1.0000000  0.0000000  0.0000000 )
                  (  0.0000000  0.0000000  1.0000000 )
                  (  0.0000000  1.0000000  0.0000000 )


      isym = 14     180 deg rotation - cart. axis [0,1,-1]       

 cryst.   s(14) = (     0          0         -1      )
                  (     0         -1          0      )
                  (    -1          0          0      )

 cart.    s(14) = ( -1.0000000  0.0000000  0.0000000 )
                  (  0.0000000  0.0000000 -1.0000000 )
                  (  0.0000000 -1.0000000  0.0000000 )


      isym = 15      90 deg rotation - cart. axis [-1,0,0]       

 cryst.   s(15) = (     0          0          1      )
                  (    -1          0          1      )
                  (     0         -1          1      )

 cart.    s(15) = (  1.0000000  0.0000000  0.0000000 )
                  (  0.0000000  0.0000000  1.0000000 )
                  (  0.0000000 -1.0000000  0.0000000 )


      isym = 16      90 deg rotation - cart. axis [1,0,0]        

 cryst.   s(16) = (     1         -1          0      )
                  (     1          0         -1      )
                  (     1          0          0      )

 cart.    s(16) = (  1.0000000  0.0000000  0.0000000 )
                  (  0.0000000  0.0000000 -1.0000000 )
                  (  0.0000000  1.0000000  0.0000000 )


      isym = 17     120 deg rotation - cart. axis [-1,-1,-1]     

 cryst.   s(17) = (    -1          0          1      )
                  (    -1          1          0      )
                  (    -1          0          0      )

 cart.    s(17) = (  0.0000000  1.0000000  0.0000000 )
                  (  0.0000000  0.0000000  1.0000000 )
                  (  1.0000000  0.0000000  0.0000000 )


      isym = 18     120 deg rotation - cart. axis [-1,1,1]       

 cryst.   s(18) = (     0          1          0      )
                  (     0          0          1      )
                  (     1          0          0      )

 cart.    s(18) = (  0.0000000 -1.0000000  0.0000000 )
                  (  0.0000000  0.0000000  1.0000000 )
                  ( -1.0000000  0.0000000  0.0000000 )


      isym = 19     120 deg rotation - cart. axis [1,1,-1]       

 cryst.   s(19) = (     1          0         -1      )
                  (     0          0         -1      )
                  (     0          1         -1      )

 cart.    s(19) = (  0.0000000  1.0000000  0.0000000 )
                  (  0.0000000  0.0000000 -1.0000000 )
                  ( -1.0000000  0.0000000  0.0000000 )


      isym = 20     120 deg rotation - cart. axis [1,-1,1]       

 cryst.   s(20) = (     0         -1          0      )
                  (     1         -1          0      )
                  (     0         -1          1      )

 cart.    s(20) = (  0.0000000 -1.0000000  0.0000000 )
                  (  0.0000000  0.0000000 -1.0000000 )
                  (  1.0000000  0.0000000  0.0000000 )


      isym = 21     120 deg rotation - cart. axis [1,1,1]        

 cryst.   s(21) = (     0          0         -1      )
                  (     0          1         -1      )
                  (     1          0         -1      )

 cart.    s(21) = (  0.0000000  0.0000000  1.0000000 )
                  (  1.0000000  0.0000000  0.0000000 )
                  (  0.0000000  1.0000000  0.0000000 )


      isym = 22     120 deg rotation - cart. axis [-1,1,-1]      

 cryst.   s(22) = (    -1          1          0      )
                  (    -1          0          0      )
                  (    -1          0          1      )

 cart.    s(22) = (  0.0000000  0.0000000  1.0000000 )
                  ( -1.0000000  0.0000000  0.0000000 )
                  (  0.0000000 -1.0000000  0.0000000 )


      isym = 23     120 deg rotation - cart. axis [1,-1,-1]      

 cryst.   s(23) = (     0          0          1      )
                  (     1          0          0      )
                  (     0          1          0      )

 cart.    s(23) = (  0.0000000  0.0000000 -1.0000000 )
                  ( -1.0000000  0.0000000  0.0000000 )
                  (  0.0000000  1.0000000  0.0000000 )


      isym = 24     120 deg rotation - cart. axis [-1,-1,1]      

 cryst.   s(24) = (     1         -1          0      )
                  (     0         -1          1      )
                  (     0         -1          0      )

 cart.    s(24) = (  0.0000000  0.0000000 -1.0000000 )
                  (  1.0000000  0.0000000  0.0000000 )
                  (  0.0000000 -1.0000000  0.0000000 )


      isym = 25     inversion                                    

 cryst.   s(25) = (    -1          0          0      )
                  (     0         -1          0      )
                  (     0          0         -1      )

 cart.    s(25) = ( -1.0000000  0.0000000  0.0000000 )
                  (  0.0000000 -1.0000000  0.0000000 )
                  (  0.0000000  0.0000000 -1.0000000 )


      isym = 26     inv. 180 deg rotation - cart. axis [0,0,1]   

 cryst.   s(26) = (     0         -1          1      )
                  (    -1          0          1      )
                  (     0          0          1      )

 cart.    s(26) = (  1.0000000  0.0000000  0.0000000 )
                  (  0.0000000  1.0000000  0.0000000 )
                  (  0.0000000  0.0000000 -1.0000000 )


      isym = 27     inv. 180 deg rotation - cart. axis [0,1,0]   

 cryst.   s(27) = (     1          0          0      )
                  (     1          0         -1      )
                  (     1         -1          0      )

 cart.    s(27) = (  1.0000000  0.0000000  0.0000000 )
                  (  0.0000000 -1.0000000  0.0000000 )
                  (  0.0000000  0.0000000  1.0000000 )


      isym = 28     inv. 180 deg rotation - cart. axis [1,0,0]   

 cryst.   s(28) = (     0          1         -1      )
                  (     0          1          0      )
                  (    -1          1          0      )

 cart.    s(28) = ( -1.0000000  0.0000000  0.0000000 )
                  (  0.0000000  1.0000000  0.0000000 )
                  (  0.0000000  0.0000000  1.0000000 )


      isym = 29     inv. 180 deg rotation - cart. axis [1,1,0]   

 cryst.   s(29) = (     0          1          0      )
                  (     1          0          0      )
                  (     0          0          1      )

 cart.    s(29) = (  0.0000000 -1.0000000  0.0000000 )
                  ( -1.0000000  0.0000000  0.0000000 )
                  (  0.0000000  0.0000000  1.0000000 )


      isym = 30     inv. 180 deg rotation - cart. axis [1,-1,0]  

 cryst.   s(30) = (     1          0         -1      )
                  (     0          1         -1      )
                  (     0          0         -1      )

 cart.    s(30) = (  0.0000000  1.0000000  0.0000000 )
                  (  1.0000000  0.0000000  0.0000000 )
                  (  0.0000000  0.0000000  1.0000000 )


      isym = 31     inv.  90 deg rotation - cart. axis [0,0,-1]  

 cryst.   s(31) = (     0         -1          0      )
                  (     0         -1          1      )
                  (     1         -1          0      )

 cart.    s(31) = (  0.0000000 -1.0000000  0.0000000 )
                  (  1.0000000  0.0000000  0.0000000 )
                  (  0.0000000  0.0000000 -1.0000000 )


      isym = 32     inv.  90 deg rotation - cart. axis [0,0,1]   

 cryst.   s(32) = (    -1          0          1      )
                  (    -1          0          0      )
                  (    -1          1          0      )

 cart.    s(32) = (  0.0000000  1.0000000  0.0000000 )
                  ( -1.0000000  0.0000000  0.0000000 )
                  (  0.0000000  0.0000000 -1.0000000 )


      isym = 33     inv. 180 deg rotation - cart. axis [1,0,1]   

 cryst.   s(33) = (     1          0          0      )
                  (     0          0          1      )
                  (     0          1          0      )

 cart.    s(33) = (  0.0000000  0.0000000 -1.0000000 )
                  (  0.0000000  1.0000000  0.0000000 )
                  ( -1.0000000  0.0000000  0.0000000 )


      isym = 34     inv. 180 deg rotation - cart. axis [-1,0,1]  

 cryst.   s(34) = (    -1          0          0      )
                  (    -1          1          0      )
                  (    -1          0          1      )

 cart.    s(34) = (  0.0000000  0.0000000  1.0000000 )
                  (  0.0000000  1.0000000  0.0000000 )
                  (  1.0000000  0.0000000  0.0000000 )


      isym = 35     inv.  90 deg rotation - cart. axis [0,1,0]   

 cryst.   s(35) = (     0         -1          1      )
                  (     1         -1          0      )
                  (     0         -1          0      )

 cart.    s(35) = (  0.0000000  0.0000000 -1.0000000 )
                  (  0.0000000 -1.0000000  0.0000000 )
                  (  1.0000000  0.0000000  0.0000000 )


      isym = 36     inv.  90 deg rotation - cart. axis [0,-1,0]  

 cryst.   s(36) = (     0          1         -1      )
                  (     0          0         -1      )
                  (     1          0         -1      )

 cart.    s(36) = (  0.0000000  0.0000000  1.0000000 )
                  (  0.0000000 -1.0000000  0.0000000 )
                  ( -1.0000000  0.0000000  0.0000000 )


      isym = 37     inv. 180 deg rotation - cart. axis [0,1,1]   

 cryst.   s(37) = (     1         -1          0      )
                  (     0         -1          0      )
                  (     0         -1          1      )

 cart.    s(37) = (  1.0000000  0.0000000  0.0000000 )
                  (  0.0000000  0.0000000 -1.0000000 )
                  (  0.0000000 -1.0000000  0.0000000 )


      isym = 38     inv. 180 deg rotation - cart. axis [0,1,-1]  

 cryst.   s(38) = (     0          0          1      )
                  (     0          1          0      )
                  (     1          0          0      )

 cart.    s(38) = (  1.0000000  0.0000000  0.0000000 )
                  (  0.0000000  0.0000000  1.0000000 )
                  (  0.0000000  1.0000000  0.0000000 )


      isym = 39     inv.  90 deg rotation - cart. axis [-1,0,0]  

 cryst.   s(39) = (     0          0         -1      )
                  (     1          0         -1      )
                  (     0          1         -1      )

 cart.    s(39) = ( -1.0000000  0.0000000  0.0000000 )
                  (  0.0000000  0.0000000 -1.0000000 )
                  (  0.0000000  1.0000000  0.0000000 )


      isym = 40     inv.  90 deg rotation - cart. axis [1,0,0]   

 cryst.   s(40) = (    -1          1          0      )
                  (    -1          0          1      )
                  (    -1          0          0      )

 cart.    s(40) = ( -1.0000000  0.0000000  0.0000000 )
                  (  0.0000000  0.0000000  1.0000000 )
                  (  0.0000000 -1.0000000  0.0000000 )


      isym = 41     inv. 120 deg rotation - cart. axis [-1,-1,-1]

 cryst.   s(41) = (     1          0         -1      )
                  (     1         -1          0      )
                  (     1          0          0      )

 cart.    s(41) = (  0.0000000 -1.0000000  0.0000000 )
                  (  0.0000000  0.0000000 -1.0000000 )
                  ( -1.0000000  0.0000000  0.0000000 )


      isym = 42     inv. 120 deg rotation - cart. axis [-1,1,1]  

 cryst.   s(42) = (     0         -1          0      )
                  (     0          0         -1      )
                  (    -1          0          0      )

 cart.    s(42) = (  0.0000000  1.0000000  0.0000000 )
                  (  0.0000000  0.0000000 -1.0000000 )
                  (  1.0000000  0.0000000  0.0000000 )


      isym = 43     inv. 120 deg rotation - cart. axis [1,1,-1]  

 cryst.   s(43) = (    -1          0          1      )
                  (     0          0          1      )
                  (     0         -1          1      )

 cart.    s(43) = (  0.0000000 -1.0000000  0.0000000 )
                  (  0.0000000  0.0000000  1.0000000 )
                  (  1.0000000  0.0000000  0.0000000 )


      isym = 44     inv. 120 deg rotation - cart. axis [1,-1,1]  

 cryst.   s(44) = (     0          1          0      )
                  (    -1          1          0      )
                  (     0          1         -1      )

 cart.    s(44) = (  0.0000000  1.0000000  0.0000000 )
                  (  0.0000000  0.0000000  1.0000000 )
                  ( -1.0000000  0.0000000  0.0000000 )


      isym = 45     inv. 120 deg rotation - cart. axis [1,1,1]   

 cryst.   s(45) = (     0          0          1      )
                  (     0         -1          1      )
                  (    -1          0          1      )

 cart.    s(45) = (  0.0000000  0.0000000 -1.0000000 )
                  ( -1.0000000  0.0000000  0.0000000 )
                  (  0.0000000 -1.0000000  0.0000000 )


      isym = 46     inv. 120 deg rotation - cart. axis [-1,1,-1] 

 cryst.   s(46) = (     1         -1          0      )
                  (     1          0          0      )
                  (     1          0         -1      )

 cart.    s(46) = (  0.0000000  0.0000000 -1.0000000 )
                  (  1.0000000  0.0000000  0.0000000 )
                  (  0.0000000  1.0000000  0.0000000 )


      isym = 47     inv. 120 deg rotation - cart. axis [1,-1,-1] 

 cryst.   s(47) = (     0          0         -1      )
                  (    -1          0          0      )
                  (     0         -1          0      )

 cart.    s(47) = (  0.0000000  0.0000000  1.0000000 )
                  (  1.0000000  0.0000000  0.0000000 )
                  (  0.0000000 -1.0000000  0.0000000 )


      isym = 48     inv. 120 deg rotation - cart. axis [-1,-1,1] 

 cryst.   s(48) = (    -1          1          0      )
                  (     0          1         -1      )
                  (     0          1          0      )

 cart.    s(48) = (  0.0000000  0.0000000  1.0000000 )
                  ( -1.0000000  0.0000000  0.0000000 )
                  (  0.0000000  1.0000000  0.0000000 )


     point group O_h (m-3m) 
     there are 10 classes
     the character table:

       E     8C3   6C2'  6C4   3C2   i     6S4   8S6   3s_h  6s_d 
A_1g   1.00  1.00  1.00  1.00  1.00  1.00  1.00  1.00  1.00  1.00
A_2g   1.00  1.00 -1.00 -1.00  1.00  1.00 -1.00  1.00  1.00 -1.00
E_g    2.00 -1.00  0.00  0.00  2.00  2.00  0.00 -1.00  2.00  0.00
T_1g   3.00  0.00 -1.00  1.00 -1.00  3.00  1.00  0.00 -1.00 -1.00
T_2g   3.00  0.00  1.00 -1.00 -1.00  3.00 -1.00  0.00 -1.00  1.00
A_1u   1.00  1.00  1.00  1.00  1.00 -1.00 -1.00 -1.00 -1.00 -1.00
A_2u   1.00  1.00 -1.00 -1.00  1.00 -1.00  1.00 -1.00 -1.00  1.00
E_u    2.00 -1.00  0.00  0.00  2.00 -2.00  0.00  1.00 -2.00  0.00
T_1u   3.00  0.00 -1.00  1.00 -1.00 -3.00 -1.00  0.00  1.00  1.00
T_2u   3.00  0.00  1.00 -1.00 -1.00 -3.00  1.00  0.00  1.00 -1.00

     the symmetry operations in each class:
     E        1
     3C2      2    4    3
     6C2'     5    6   14   13   10    9
     6C4      7    8   15   16   12   11
     8C3     17   19   20   18   24   21   22   23
     i       25
     3s_h    26   28   27
     6s_d    29   30   38   37   34   33
     6S4     31   32   39   40   36   35
     8S6     41   43   44   42   48   45   46   47

   Cartesian axes

     site n.     atom                  positions (alat units)
         1           Ni  tau(   1) = (   0.0000000   0.0000000   0.0000000  )

   Crystallographic axes

     site n.     atom                  positions (cryst. coord.)
         1           Ni  tau(   1) = (  0.0000000  0.0000000  0.0000000  )

     number of k points=    85  Marzari-Vanderbilt smearing, width (Ry)=  0.0200
                       cart. coord. in units 2pi/alat
        k(    1) = (  -0.0555556   0.0555556   0.0555556), wk =   0.0054870
        k(    2) = (  -0.1666667   0.1666667  -0.0555556), wk =   0.0164609
        k(    3) = (  -0.2777778   0.2777778  -0.1666667), wk =   0.0164609
        k(    4) = (  -0.3888889   0.3888889  -0.2777778), wk =   0.0164609
        k(    5) = (   0.5000000  -0.5000000   0.6111111), wk =   0.0164609
        k(    6) = (   0.3888889  -0.3888889   0.5000000), wk =   0.0164609
        k(    7) = (   0.2777778  -0.2777778   0.3888889), wk =   0.0164609
        k(    8) = (   0.1666667  -0.1666667   0.2777778), wk =   0.0164609
        k(    9) = (   0.0555556  -0.0555556   0.1666667), wk =   0.0164609
        k(   10) = (  -0.0555556   0.2777778   0.0555556), wk =   0.0164609
        k(   11) = (  -0.1666667   0.3888889  -0.0555556), wk =   0.0329218
        k(   12) = (  -0.2777778   0.5000000  -0.1666667), wk =   0.0329218
        k(   13) = (   0.6111111  -0.3888889   0.7222222), wk =   0.0329218
        k(   14) = (   0.5000000  -0.2777778   0.6111111), wk =   0.0329218
        k(   15) = (   0.3888889  -0.1666667   0.5000000), wk =   0.0329218
        k(   16) = (   0.2777778  -0.0555556   0.3888889), wk =   0.0329218
        k(   17) = (   0.1666667   0.0555556   0.2777778), wk =   0.0329218
        k(   18) = (  -0.0555556   0.5000000   0.0555556), wk =   0.0164609
        k(   19) = (  -0.1666667   0.6111111  -0.0555556), wk =   0.0329218
        k(   20) = (   0.7222222  -0.2777778   0.8333333), wk =   0.0329218
        k(   21) = (   0.6111111  -0.1666667   0.7222222), wk =   0.0329218
        k(   22) = (   0.5000000  -0.0555556   0.6111111), wk =   0.0329218
        k(   23) = (   0.3888889   0.0555556   0.5000000), wk =   0.0329218
        k(   24) = (   0.2777778   0.1666667   0.3888889), wk =   0.0329218
        k(   25) = (  -0.0555556   0.7222222   0.0555556), wk =   0.0164609
        k(   26) = (   0.8333333  -0.1666667   0.9444444), wk =   0.0329218
        k(   27) = (   0.7222222  -0.0555556   0.8333333), wk =   0.0329218
        k(   28) = (   0.6111111   0.0555556   0.7222222), wk =   0.0329218
        k(   29) = (   0.5000000   0.1666667   0.6111111), wk =   0.0329218
        k(   30) = (   0.3888889   0.2777778   0.5000000), wk =   0.0329218
        k(   31) = (  -0.0555556  -1.0555556   0.0555556), wk =   0.0164609
        k(   32) = (  -0.1666667  -0.9444444  -0.0555556), wk =   0.0329218
        k(   33) = (  -0.2777778  -0.8333333  -0.1666667), wk =   0.0329218
        k(   34) = (  -0.3888889  -0.7222222  -0.2777778), wk =   0.0329218
        k(   35) = (  -0.5000000  -0.6111111  -0.3888889), wk =   0.0164609
        k(   36) = (  -0.0555556  -0.8333333   0.0555556), wk =   0.0164609
        k(   37) = (  -0.1666667  -0.7222222  -0.0555556), wk =   0.0329218
        k(   38) = (  -0.2777778  -0.6111111  -0.1666667), wk =   0.0329218
        k(   39) = (  -0.0555556  -0.6111111   0.0555556), wk =   0.0164609
        k(   40) = (  -0.1666667  -0.5000000  -0.0555556), wk =   0.0329218
        k(   41) = (  -0.0555556  -0.3888889   0.0555556), wk =   0.0164609
        k(   42) = (  -0.1666667   0.1666667   0.1666667), wk =   0.0054870
        k(   43) = (  -0.2777778   0.2777778   0.0555556), wk =   0.0164609
        k(   44) = (  -0.3888889   0.3888889  -0.0555556), wk =   0.0164609
        k(   45) = (   0.5000000  -0.5000000   0.8333333), wk =   0.0164609
        k(   46) = (   0.3888889  -0.3888889   0.7222222), wk =   0.0164609
        k(   47) = (   0.2777778  -0.2777778   0.6111111), wk =   0.0164609
        k(   48) = (   0.1666667  -0.1666667   0.5000000), wk =   0.0164609
        k(   49) = (  -0.1666667   0.3888889   0.1666667), wk =   0.0164609
        k(   50) = (  -0.2777778   0.5000000   0.0555556), wk =   0.0329218
        k(   51) = (   0.6111111  -0.3888889   0.9444444), wk =   0.0329218
        k(   52) = (   0.5000000  -0.2777778   0.8333333), wk =   0.0329218
        k(   53) = (   0.3888889  -0.1666667   0.7222222), wk =   0.0329218
        k(   54) = (   0.2777778  -0.0555556   0.6111111), wk =   0.0329218
        k(   55) = (  -0.1666667   0.6111111   0.1666667), wk =   0.0164609
        k(   56) = (   0.7222222  -0.2777778   1.0555556), wk =   0.0329218
        k(   57) = (   0.6111111  -0.1666667   0.9444444), wk =   0.0329218
        k(   58) = (   0.5000000  -0.0555556   0.8333333), wk =   0.0329218
        k(   59) = (   0.3888889   0.0555556   0.7222222), wk =   0.0329218
        k(   60) = (  -0.1666667  -1.1666667   0.1666667), wk =   0.0164609
        k(   61) = (  -0.2777778  -1.0555556   0.0555556), wk =   0.0329218
        k(   62) = (  -0.3888889  -0.9444444  -0.0555556), wk =   0.0329218
        k(   63) = (  -0.5000000  -0.8333333  -0.1666667), wk =   0.0164609
        k(   64) = (  -0.1666667  -0.9444444   0.1666667), wk =   0.0164609
        k(   65) = (  -0.2777778  -0.8333333   0.0555556), wk =   0.0329218
        k(   66) = (  -0.1666667  -0.7222222   0.1666667), wk =   0.0164609
        k(   67) = (  -0.2777778   0.2777778   0.2777778), wk =   0.0054870
        k(   68) = (  -0.3888889   0.3888889   0.1666667), wk =   0.0164609
        k(   69) = (   0.5000000  -0.5000000   1.0555556), wk =   0.0164609
        k(   70) = (   0.3888889  -0.3888889   0.9444444), wk =   0.0164609
        k(   71) = (   0.2777778  -0.2777778   0.8333333), wk =   0.0164609
        k(   72) = (  -0.2777778   0.5000000   0.2777778), wk =   0.0164609
        k(   73) = (   0.6111111  -0.3888889   1.1666667), wk =   0.0329218
        k(   74) = (   0.5000000  -0.2777778   1.0555556), wk =   0.0329218
        k(   75) = (   0.3888889  -0.1666667   0.9444444), wk =   0.0329218
        k(   76) = (  -0.2777778  -1.2777778   0.2777778), wk =   0.0164609
        k(   77) = (  -0.3888889  -1.1666667   0.1666667), wk =   0.0329218
        k(   78) = (  -0.5000000  -1.0555556   0.0555556), wk =   0.0164609
        k(   79) = (  -0.2777778  -1.0555556   0.2777778), wk =   0.0164609
        k(   80) = (  -0.3888889   0.3888889   0.3888889), wk =   0.0054870
        k(   81) = (   0.5000000  -0.5000000   1.2777778), wk =   0.0164609
        k(   82) = (   0.3888889  -0.3888889   1.1666667), wk =   0.0164609
        k(   83) = (  -0.3888889  -1.3888889   0.3888889), wk =   0.0164609
        k(   84) = (  -0.5000000  -1.2777778   0.2777778), wk =   0.0164609
        k(   85) = (   0.5000000  -0.5000000  -0.5000000), wk =   0.0027435

                       cryst. coord.
        k(    1) = (   0.0555556   0.0555556   0.0555556), wk =   0.0054870
        k(    2) = (   0.0555556   0.0555556   0.1666667), wk =   0.0164609
        k(    3) = (   0.0555556   0.0555556   0.2777778), wk =   0.0164609
        k(    4) = (   0.0555556   0.0555556   0.3888889), wk =   0.0164609
        k(    5) = (   0.0555556   0.0555556  -0.5000000), wk =   0.0164609
        k(    6) = (   0.0555556   0.0555556  -0.3888889), wk =   0.0164609
        k(    7) = (   0.0555556   0.0555556  -0.2777778), wk =   0.0164609
        k(    8) = (   0.0555556   0.0555556  -0.1666667), wk =   0.0164609
        k(    9) = (   0.0555556   0.0555556  -0.0555556), wk =   0.0164609
        k(   10) = (   0.0555556   0.1666667   0.1666667), wk =   0.0164609
        k(   11) = (   0.0555556   0.1666667   0.2777778), wk =   0.0329218
        k(   12) = (   0.0555556   0.1666667   0.3888889), wk =   0.0329218
        k(   13) = (   0.0555556   0.1666667  -0.5000000), wk =   0.0329218
        k(   14) = (   0.0555556   0.1666667  -0.3888889), wk =   0.0329218
        k(   15) = (   0.0555556   0.1666667  -0.2777778), wk =   0.0329218
        k(   16) = (   0.0555556   0.1666667  -0.1666667), wk =   0.0329218
        k(   17) = (   0.0555556   0.1666667  -0.0555556), wk =   0.0329218
        k(   18) = (   0.0555556   0.2777778   0.2777778), wk =   0.0164609
        k(   19) = (   0.0555556   0.2777778   0.3888889), wk =   0.0329218
        k(   20) = (   0.0555556   0.2777778  -0.5000000), wk =   0.0329218
        k(   21) = (   0.0555556   0.2777778  -0.3888889), wk =   0.0329218
        k(   22) = (   0.0555556   0.2777778  -0.2777778), wk =   0.0329218
        k(   23) = (   0.0555556   0.2777778  -0.1666667), wk =   0.0329218
        k(   24) = (   0.0555556   0.2777778  -0.0555556), wk =   0.0329218
        k(   25) = (   0.0555556   0.3888889   0.3888889), wk =   0.0164609
        k(   26) = (   0.0555556   0.3888889  -0.5000000), wk =   0.0329218
        k(   27) = (   0.0555556   0.3888889  -0.3888889), wk =   0.0329218
        k(   28) = (   0.0555556   0.3888889  -0.2777778), wk =   0.0329218
        k(   29) = (   0.0555556   0.3888889  -0.1666667), wk =   0.0329218
        k(   30) = (   0.0555556   0.3888889  -0.0555556), wk =   0.0329218
        k(   31) = (   0.0555556  -0.5000000  -0.5000000), wk =   0.0164609
        k(   32) = (   0.0555556  -0.5000000  -0.3888889), wk =   0.0329218
        k(   33) = (   0.0555556  -0.5000000  -0.2777778), wk =   0.0329218
        k(   34) = (   0.0555556  -0.5000000  -0.1666667), wk =   0.0329218
        k(   35) = (   0.0555556  -0.5000000  -0.0555556), wk =   0.0164609
        k(   36) = (   0.0555556  -0.3888889  -0.3888889), wk =   0.0164609
        k(   37) = (   0.0555556  -0.3888889  -0.2777778), wk =   0.0329218
        k(   38) = (   0.0555556  -0.3888889  -0.1666667), wk =   0.0329218
        k(   39) = (   0.0555556  -0.2777778  -0.2777778), wk =   0.0164609
        k(   40) = (   0.0555556  -0.2777778  -0.1666667), wk =   0.0329218
        k(   41) = (   0.0555556  -0.1666667  -0.1666667), wk =   0.0164609
        k(   42) = (   0.1666667   0.1666667   0.1666667), wk =   0.0054870
        k(   43) = (   0.1666667   0.1666667   0.2777778), wk =   0.0164609
        k(   44) = (   0.1666667   0.1666667   0.3888889), wk =   0.0164609
        k(   45) = (   0.1666667   0.1666667  -0.5000000), wk =   0.0164609
        k(   46) = (   0.1666667   0.1666667  -0.3888889), wk =   0.0164609
        k(   47) = (   0.1666667   0.1666667  -0.2777778), wk =   0.0164609
        k(   48) = (   0.1666667   0.1666667  -0.1666667), wk =   0.0164609
        k(   49) = (   0.1666667   0.2777778   0.2777778), wk =   0.0164609
        k(   50) = (   0.1666667   0.2777778   0.3888889), wk =   0.0329218
        k(   51) = (   0.1666667   0.2777778  -0.5000000), wk =   0.0329218
        k(   52) = (   0.1666667   0.2777778  -0.3888889), wk =   0.0329218
        k(   53) = (   0.1666667   0.2777778  -0.2777778), wk =   0.0329218
        k(   54) = (   0.1666667   0.2777778  -0.1666667), wk =   0.0329218
        k(   55) = (   0.1666667   0.3888889   0.3888889), wk =   0.0164609
        k(   56) = (   0.1666667   0.3888889  -0.5000000), wk =   0.0329218
        k(   57) = (   0.1666667   0.3888889  -0.3888889), wk =   0.0329218
        k(   58) = (   0.1666667   0.3888889  -0.2777778), wk =   0.0329218
        k(   59) = (   0.1666667   0.3888889  -0.1666667), wk =   0.0329218
        k(   60) = (   0.1666667  -0.5000000  -0.5000000), wk =   0.0164609
        k(   61) = (   0.1666667  -0.5000000  -0.3888889), wk =   0.0329218
        k(   62) = (   0.1666667  -0.5000000  -0.2777778), wk =   0.0329218
        k(   63) = (   0.1666667  -0.5000000  -0.1666667), wk =   0.0164609
        k(   64) = (   0.1666667  -0.3888889  -0.3888889), wk =   0.0164609
        k(   65) = (   0.1666667  -0.3888889  -0.2777778), wk =   0.0329218
        k(   66) = (   0.1666667  -0.2777778  -0.2777778), wk =   0.0164609
        k(   67) = (   0.2777778   0.2777778   0.2777778), wk =   0.0054870
        k(   68) = (   0.2777778   0.2777778   0.3888889), wk =   0.0164609
        k(   69) = (   0.2777778   0.2777778  -0.5000000), wk =   0.0164609
        k(   70) = (   0.2777778   0.2777778  -0.3888889), wk =   0.0164609
        k(   71) = (   0.2777778   0.2777778  -0.2777778), wk =   0.0164609
        k(   72) = (   0.2777778   0.3888889   0.3888889), wk =   0.0164609
        k(   73) = (   0.2777778   0.3888889  -0.5000000), wk =   0.0329218
        k(   74) = (   0.2777778   0.3888889  -0.3888889), wk =   0.0329218
        k(   75) = (   0.2777778   0.3888889  -0.2777778), wk =   0.0329218
        k(   76) = (   0.2777778  -0.5000000  -0.5000000), wk =   0.0164609
        k(   77) = (   0.2777778  -0.5000000  -0.3888889), wk =   0.0329218
        k(   78) = (   0.2777778  -0.5000000  -0.2777778), wk =   0.0164609
        k(   79) = (   0.2777778  -0.3888889  -0.3888889), wk =   0.0164609
        k(   80) = (   0.3888889   0.3888889   0.3888889), wk =   0.0054870
        k(   81) = (   0.3888889   0.3888889  -0.5000000), wk =   0.0164609
        k(   82) = (   0.3888889   0.3888889  -0.3888889), wk =   0.0164609
        k(   83) = (   0.3888889  -0.5000000  -0.5000000), wk =   0.0164609
        k(   84) = (   0.3888889  -0.5000000  -0.3888889), wk =   0.0164609
        k(   85) = (  -0.5000000  -0.5000000  -0.5000000), wk =   0.0027435

     Dense  grid:     2565 G-vectors     FFT dimensions: (  20,  20,  20)

     Largest allocated arrays     est. size (Mb)     dimensions
        Kohn-Sham Wavefunctions         0.07 Mb     (     332,   13)
        NL pseudopotentials             0.09 Mb     (     332,   18)
        Each V/rho on FFT grid          0.12 Mb     (    8000)
        Each G-vector array             0.02 Mb     (    2565)
        G-vector shells                 0.00 Mb     (      62)
     Largest temporary arrays     est. size (Mb)     dimensions
        Auxiliary wavefunctions         0.26 Mb     (     332,   52)
        Each subspace H/S matrix        0.04 Mb     (      52,   52)
        Each <psi_i|beta_j> matrix      0.00 Mb     (      18,   13)
        Arrays for rho mixing           0.98 Mb     (    8000,    8)

     Check: negative/imaginary core charge=   -0.000044    0.000000

     Initial potential from superposition of free atoms

     starting charge   17.99977, renormalised to   18.00000
     Starting wfc are   10 randomized atomic wfcs +    3 random wfc

     total cpu time spent up to now is        3.6 secs

     per-process dynamical memory:    13.4 Mb

     Self-consistent Calculation

     iteration #  1     ecut=    40.00 Ry     beta=0.70
     Davidson diagonalization with overlap
     ethr =  1.00E-02,  avg # of iterations =  4.3

     Threshold (ethr) on eigenvalues was too large:
     Diagonalizing with lowered threshold

     Davidson diagonalization with overlap
     ethr =  1.94E-04,  avg # of iterations =  1.2

     total cpu time spent up to now is       10.3 secs

     total energy              =    -338.86668880 Ry
     Harris-Foulkes estimate   =    -338.88814019 Ry
     estimated scf accuracy    <       0.03620069 Ry

     iteration #  2     ecut=    40.00 Ry     beta=0.70
     Davidson diagonalization with overlap
     ethr =  2.01E-04,  avg # of iterations =  2.1

     total cpu time spent up to now is       12.4 secs

     total energy              =    -338.85891071 Ry
     Harris-Foulkes estimate   =    -338.89550930 Ry
     estimated scf accuracy    <       0.09503563 Ry

     iteration #  3     ecut=    40.00 Ry     beta=0.70
     Davidson diagonalization with overlap
     ethr =  2.01E-04,  avg # of iterations =  2.0

     total cpu time spent up to now is       14.7 secs

     total energy              =    -338.87779344 Ry
     Harris-Foulkes estimate   =    -338.87904388 Ry
     estimated scf accuracy    <       0.00459338 Ry

     iteration #  4     ecut=    40.00 Ry     beta=0.70
     Davidson diagonalization with overlap
     ethr =  2.55E-05,  avg # of iterations =  2.0

     total cpu time spent up to now is       16.7 secs

     total energy              =    -338.87840865 Ry
     Harris-Foulkes estimate   =    -338.87840383 Ry
     estimated scf accuracy    <       0.00002350 Ry

     iteration #  5     ecut=    40.00 Ry     beta=0.70
     Davidson diagonalization with overlap
     ethr =  1.31E-07,  avg # of iterations =  2.8

     total cpu time spent up to now is       18.9 secs

     total energy              =    -338.87841869 Ry
     Harris-Foulkes estimate   =    -338.87841920 Ry
     estimated scf accuracy    <       0.00000152 Ry

     iteration #  6     ecut=    40.00 Ry     beta=0.70
     Davidson diagonalization with overlap
     ethr =  8.43E-09,  avg # of iterations =  1.4

     total cpu time spent up to now is       20.6 secs

     End of self-consistent calculation

          k =-0.0556 0.0556 0.0556 (   328 PWs)   bands (ev):

   -85.6211 -45.6031 -45.6031 -45.5402   8.8042  15.5664  15.5849  15.5849
    16.6425  16.6425  40.7146  43.4294  44.6468

     occupation numbers 
     1.0000   1.0000   1.0000   1.0000   1.0000   1.0000   1.0000   1.0000
     1.0004   1.0004   0.0000   0.0000   0.0000

          k =-0.1667 0.1667-0.0556 (   317 PWs)   bands (ev):

   -85.6126 -45.5303 -45.4891 -45.3881   9.4459  15.4949  15.7453  15.8191
    16.6291  16.7425  38.0089  40.5437  43.6420

     occupation numbers 
     1.0000   1.0000   1.0000   1.0000   1.0000   1.0000   1.0000   1.0000
     1.0003   1.0021   0.0000   0.0000   0.0000

          k =-0.2778 0.2778-0.1667 (   314 PWs)   bands (ev):

   -85.6010 -45.4834 -45.4374 -45.4233  10.8725  15.2327  15.8560  15.9023
    16.7355  17.0418  32.5276  39.4219  42.8553

     occupation numbers 
     1.0000   1.0000   1.0000   1.0000   1.0000   1.0000   1.0000   1.0000
     1.0019   1.0576   0.0000   0.0000   0.0000

          k =-0.3889 0.3889-0.2778 (   314 PWs)   bands (ev):

   -85.5891 -45.5478 -45.4093 -45.3899  12.5032  15.5219  15.7133  15.7954
    17.2026  17.4680  27.5016  38.8791  41.5988

     occupation numbers 
     1.0000   1.0000   1.0000   1.0000   1.0000   1.0000   1.0000   1.0000
     1.0738   0.5874   0.0000   0.0000   0.0000

          k = 0.5000-0.5000 0.6111 (   319 PWs)   bands (ev):

   -85.5835 -45.5486 -45.4999 -45.4620  13.2072  15.5666  15.6730  16.5476
    17.3992  18.0473  24.0204  38.8638  41.0848

     occupation numbers 
     1.0000   1.0000   1.0000   1.0000   1.0000   1.0000   1.0000   1.0001
     0.7733   0.0006   0.0000   0.0000   0.0000

          k = 0.3889-0.3889 0.5000 (   318 PWs)   bands (ev):

   -85.5847 -45.5672 -45.4576 -45.4516  13.0925  15.6089  15.7238  16.2254
    17.4493  17.7420  24.8562  39.2711  40.6643

     occupation numbers 
     1.0000   1.0000   1.0000   1.0000   1.0000   1.0000   1.0000   1.0000
     0.6392   0.0672   0.0000   0.0000   0.0000

          k = 0.2778-0.2778 0.3889 (   310 PWs)   bands (ev):

   -85.5913 -45.4398 -45.3816 -45.3740  12.0228  15.2986  15.7853  15.8666
    17.1591  17.3181  29.0893  40.0311  40.5880

     occupation numbers 
     1.0000   1.0000   1.0000   1.0000   1.0000   1.0000   1.0000   1.0000
     1.0832   0.9512   0.0000   0.0000   0.0000

          k = 0.1667-0.1667 0.2778 (   315 PWs)   bands (ev):

   -85.6055 -45.4911 -45.4599 -45.4272  10.3273  15.2724  15.8714  15.9012
    16.6536  16.9076  34.3421  40.9412  41.2842

     occupation numbers 
     1.0000   1.0000   1.0000   1.0000   1.0000   1.0000   1.0000   1.0000
     1.0005   1.0186   0.0000   0.0000   0.0000

          k = 0.0556-0.0556 0.1667 (   322 PWs)   bands (ev):

   -85.6166 -45.5545 -45.5439 -45.4594   9.1297  15.4688  15.7116  15.7249
    16.6129  16.7248  39.6405  42.0566  42.6849

     occupation numbers 
     1.0000   1.0000   1.0000   1.0000   1.0000   1.0000   1.0000   1.0000
     1.0002   1.0016   0.0000   0.0000   0.0000

          k =-0.0556 0.2778 0.0556 (   315 PWs)   bands (ev):

   -85.6094 -45.5045 -45.4703 -45.3709   9.7519  15.3125  15.9565  15.9628
    16.4630  16.8447  38.2331  40.5971  40.6735

     occupation numbers 
     1.0000   1.0000   1.0000   1.0000   1.0000   1.0000   1.0000   1.0000
     1.0000   1.0089   0.0000   0.0000   0.0000

          k =-0.1667 0.3889-0.0556 (   313 PWs)   bands (ev):

   -85.6002 -45.5154 -45.4544 -45.3459  10.8889  15.0321  15.9354  16.1834
    16.5566  17.1045  34.7525  37.1499  41.0792

     occupation numbers 
     1.0000   1.0000   1.0000   1.0000   1.0000   1.0000   1.0000   1.0000
     1.0001   1.0769   0.0000   0.0000   0.0000

          k =-0.2778 0.5000-0.1667 (   314 PWs)   bands (ev):

   -85.5895 -45.5269 -45.4457 -45.3967  12.4942  14.9510  15.6428  16.1437
    17.1319  17.6140  29.4897  36.4140  39.0430

     occupation numbers 
     1.0000   1.0000   1.0000   1.0000   1.0000   1.0000   1.0000   1.0000
     1.0820   0.2316   0.0000   0.0000   0.0000

          k = 0.6111-0.3889 0.7222 (   314 PWs)   bands (ev):

   -85.5812 -45.5416 -45.4558 -45.3731  13.4935  15.2185  15.6778  16.0198
    17.4490  18.9273  25.1632  36.2114  37.4914

     occupation numbers 
     1.0000   1.0000   1.0000   1.0000   1.0000   1.0000   1.0000   1.0000
     0.6399   0.0000   0.0000   0.0000   0.0000

          k = 0.5000-0.2778 0.6111 (   315 PWs)   bands (ev):

   -85.5801 -45.5406 -45.4616 -45.3959  13.5961  15.2558  15.8134  15.9641
    17.3916  19.4879  24.1966  35.4179  38.0725

     occupation numbers 
     1.0000   1.0000   1.0000   1.0000   1.0000   1.0000   1.0000   1.0000
     0.7924   0.0000   0.0000   0.0000   0.0000

          k = 0.3889-0.1667 0.5000 (   316 PWs)   bands (ev):

   -85.5870 -45.5791 -45.4598 -45.4013  12.9713  15.1274  15.5029  16.0666
    17.0591  18.0919  27.8976  35.0062  39.8879

     occupation numbers 
     1.0000   1.0000   1.0000   1.0000   1.0000   1.0000   1.0000   1.0000
     1.0635   0.0003   0.0000   0.0000   0.0000

          k = 0.2778-0.0556 0.3889 (   313 PWs)   bands (ev):

   -85.5968 -45.4937 -45.4538 -45.3762  11.4167  15.0489  15.7903  16.1853
    16.5714  17.3542  32.9343  35.4276  42.3073

     occupation numbers 
     1.0000   1.0000   1.0000   1.0000   1.0000   1.0000   1.0000   1.0000
     1.0001   0.8800   0.0000   0.0000   0.0000

          k = 0.1667 0.0556 0.2778 (   315 PWs)   bands (ev):

   -85.6074 -45.5021 -45.4578 -45.4053  10.0461  15.3101  15.8949  15.9434
    16.5180  16.8970  36.3184  38.8063  42.8012

     occupation numbers 
     1.0000   1.0000   1.0000   1.0000   1.0000   1.0000   1.0000   1.0000
     1.0000   1.0165   0.0000   0.0000   0.0000

          k =-0.0556 0.5000 0.0556 (   310 PWs)   bands (ev):

   -85.5937 -45.4420 -45.4306 -45.3809  11.6468  14.7269  16.0286  16.5497
    16.7356  17.1633  35.2550  36.7698  37.5862

     occupation numbers 
     1.0000   1.0000   1.0000   1.0000   1.0000   1.0000   1.0000   1.0001
     1.0019   1.0829   0.0000   0.0000   0.0000

          k =-0.1667 0.6111-0.0556 (   316 PWs)   bands (ev):

   -85.5868 -45.6036 -45.4708 -45.4120  12.8006  14.4750  15.8226  16.7826
    17.1195  17.6317  32.0498  34.1427  35.3439

     occupation numbers 
     1.0000   1.0000   1.0000   1.0000   1.0000   1.0000   1.0000   1.0038
     1.0801   0.2000   0.0000   0.0000   0.0000

          k = 0.7222-0.2778 0.8333 (   318 PWs)   bands (ev):

   -85.5794 -45.5642 -45.5077 -45.4696  13.7458  14.4919  15.5734  16.5911
    17.4719  19.4852  27.2973  32.6375  34.4421

     occupation numbers 
     1.0000   1.0000   1.0000   1.0000   1.0000   1.0000   1.0000   1.0001
     0.5765   0.0000   0.0000   0.0000   0.0000

          k = 0.6111-0.1667 0.7222 (   312 PWs)   bands (ev):

   -85.5746 -45.4507 -45.4374 -45.4234  14.2013  14.6551  15.4595  16.4835
    17.4299  21.8501  24.1578  31.0405  35.4039

     occupation numbers 
     1.0000   1.0000   1.0000   1.0000   1.0000   1.0000   1.0000   1.0000
     0.6922   0.0000   0.0000   0.0000   0.0000

          k = 0.5000-0.0556 0.6111 (   317 PWs)   bands (ev):

   -85.5795 -45.5520 -45.4868 -45.4361  14.0488  14.9019  15.0854  16.4300
    17.0095  19.8876  27.2060  30.3017  37.2975

     occupation numbers 
     1.0000   1.0000   1.0000   1.0000   1.0000   1.0000   1.0000   1.0000
     1.0465   0.0000   0.0000   0.0000   0.0000

          k = 0.3889 0.0556 0.5000 (   316 PWs)   bands (ev):

   -85.5877 -45.5524 -45.4912 -45.4063  12.9295  14.9354  15.4381  16.3308
    16.7314  18.1758  29.8937  32.5375  39.7846

     occupation numbers 
     1.0000   1.0000   1.0000   1.0000   1.0000   1.0000   1.0000   1.0000
     1.0017   0.0000   0.0000   0.0000   0.0000

          k = 0.2778 0.1667 0.3889 (   314 PWs)   bands (ev):

   -85.5955 -45.4825 -45.4636 -45.4022  11.6275  15.1215  15.7616  15.9850
    16.8587  17.3019  30.9080  37.8558  41.5516

     occupation numbers 
     1.0000   1.0000   1.0000   1.0000   1.0000   1.0000   1.0000   1.0000
     1.0106   0.9780   0.0000   0.0000   0.0000

          k =-0.0556 0.7222 0.0556 (   320 PWs)   bands (ev):

   -85.5825 -45.6232 -45.5380 -45.5068  13.1308  14.1376  16.6901  17.0910
    17.3693  17.6862  31.6835  32.8744  33.8668

     occupation numbers 
     1.0000   1.0000   1.0000   1.0000   1.0000   1.0000   1.0009   1.0734
     0.8462   0.1212   0.0000   0.0000   0.0000

          k = 0.8333-0.1667 0.9444 (   317 PWs)   bands (ev):

   -85.5755 -45.5448 -45.5295 -45.4688  13.4802  14.0554  16.5987  17.2176
    17.5127  19.7111  29.2205  30.4062  32.4842

     occupation numbers 
     1.0000   1.0000   1.0000   1.0000   1.0000   1.0000   1.0002   1.0666
     0.4653   0.0000   0.0000   0.0000   0.0000

          k = 0.7222-0.0556 0.8333 (   314 PWs)   bands (ev):

   -85.5717 -45.5017 -45.4948 -45.3939  13.9027  14.2715  16.0168  17.0085
    17.5539  22.6144  25.9956  28.0568  33.2555

     occupation numbers 
     1.0000   1.0000   1.0000   1.0000   1.0000   1.0000   1.0000   1.0462
     0.3607   0.0000   0.0000   0.0000   0.0000

          k = 0.6111 0.0556 0.7222 (   315 PWs)   bands (ev):

   -85.5739 -45.5351 -45.4403 -45.4294  14.3654  14.4857  15.3735  16.6454
    17.3461  22.5202  24.8869  28.7959  35.0825

     occupation numbers 
     1.0000   1.0000   1.0000   1.0000   1.0000   1.0000   1.0000   1.0004
     0.8971   0.0000   0.0000   0.0000   0.0000

          k = 0.5000 0.1667 0.6111 (   316 PWs)   bands (ev):

   -85.5797 -45.5492 -45.4627 -45.4278  13.8360  15.0286  15.3961  16.1973
    17.2363  19.7900  25.4690  32.7127  37.5380

     occupation numbers 
     1.0000   1.0000   1.0000   1.0000   1.0000   1.0000   1.0000   1.0000
     1.0543   0.0000   0.0000   0.0000   0.0000

          k = 0.3889 0.2778 0.5000 (   317 PWs)   bands (ev):

   -85.5860 -45.5950 -45.4595 -45.4029  13.0021  15.5057  15.6619  15.8540
    17.3098  17.9274  26.1887  37.6017  40.0865

     occupation numbers 
     1.0000   1.0000   1.0000   1.0000   1.0000   1.0000   1.0000   1.0000
     0.9653   0.0053   0.0000   0.0000   0.0000

          k =-0.0556-1.0556 0.0556 (   316 PWs)   bands (ev):

   -85.5724 -45.5357 -45.5188 -45.4505  13.3486  13.8551  17.4051  17.4528
    17.7029  20.0425  27.3856  31.5242  32.4608

     occupation numbers 
     1.0000   1.0000   1.0000   1.0000   1.0000   1.0000   0.7581   0.6293
     0.1025   0.0000   0.0000   0.0000   0.0000

          k =-0.1667-0.9444-0.0556 (   317 PWs)   bands (ev):

   -85.5729 -45.5416 -45.5242 -45.4748  13.4994  13.9623  16.8293  17.2813
    17.6765  20.8992  27.4303  29.9342  32.0429

     occupation numbers 
     1.0000   1.0000   1.0000   1.0000   1.0000   1.0000   1.0073   1.0077
     0.1332   0.0000   0.0000   0.0000   0.0000

          k =-0.2778-0.8333-0.1667 (   313 PWs)   bands (ev):

   -85.5737 -45.5095 -45.4626 -45.3913  13.9067  14.3353  15.8677  16.8513
    17.5474  21.1225  26.5484  29.9814  33.6458

     occupation numbers 
     1.0000   1.0000   1.0000   1.0000   1.0000   1.0000   1.0000   1.0097
     0.3765   0.0000   0.0000   0.0000   0.0000

          k =-0.3889-0.7222-0.2778 (   313 PWs)   bands (ev):

   -85.5775 -45.4961 -45.4598 -45.3928  13.8888  14.9144  15.5776  16.2343
    17.4718  20.3637  24.4148  33.7626  36.0713

     occupation numbers 
     1.0000   1.0000   1.0000   1.0000   1.0000   1.0000   1.0000   1.0000
     0.5767   0.0000   0.0000   0.0000   0.0000

          k =-0.5000-0.6111-0.3889 (   318 PWs)   bands (ev):

   -85.5819 -45.5371 -45.4858 -45.4617  13.3626  15.4622  15.7589  16.2263
    17.4485  18.8134  23.7199  37.7412  39.2944

     occupation numbers 
     1.0000   1.0000   1.0000   1.0000   1.0000   1.0000   1.0000   1.0000
     0.6412   0.0000   0.0000   0.0000   0.0000

          k =-0.0556-0.8333 0.0556 (   322 PWs)   bands (ev):

   -85.5778 -45.6396 -45.5522 -45.5509  13.2883  13.9471  17.1729  17.2915
    17.5101  18.8221  29.1146  31.9893  32.9433

     occupation numbers 
     1.0000   1.0000   1.0000   1.0000   1.0000   1.0000   1.0819   0.9937
     0.4722   0.0000   0.0000   0.0000   0.0000

          k =-0.1667-0.7222-0.0556 (   318 PWs)   bands (ev):

   -85.5810 -45.6152 -45.5259 -45.4389  13.3314  14.2255  16.1612  17.0292
    17.3424  18.4089  30.9445  32.0299  33.3758

     occupation numbers 
     1.0000   1.0000   1.0000   1.0000   1.0000   1.0000   1.0000   1.0533
     0.9048   0.0000   0.0000   0.0000   0.0000

          k =-0.2778-0.6111-0.1667 (   319 PWs)   bands (ev):

   -85.5854 -45.6167 -45.5000 -45.4581  13.2617  14.7248  15.4810  16.3366
    17.3356  18.2649  28.2783  34.9819  36.1330

     occupation numbers 
     1.0000   1.0000   1.0000   1.0000   1.0000   1.0000   1.0000   1.0000
     0.9184   0.0000   0.0000   0.0000   0.0000

          k =-0.0556-0.6111 0.0556 (   317 PWs)   bands (ev):

   -85.5883 -45.6089 -45.4922 -45.4352  12.5824  14.4023  16.1547  16.8435
    17.0478  17.2394  33.8246  34.8009  35.1676

     occupation numbers 
     1.0000   1.0000   1.0000   1.0000   1.0000   1.0000   1.0000   1.0088
     1.0597   1.0518   0.0000   0.0000   0.0000

          k =-0.1667-0.5000-0.0556 (   315 PWs)   bands (ev):

   -85.5936 -45.5350 -45.4634 -45.4150  11.8828  14.7514  15.8050  16.4743
    16.7801  17.2988  33.3224  35.6072  38.3440

     occupation numbers 
     1.0000   1.0000   1.0000   1.0000   1.0000   1.0000   1.0000   1.0000
     1.0037   0.9829   0.0000   0.0000   0.0000

          k =-0.0556-0.3889 0.0556 (   310 PWs)   bands (ev):

   -85.6010 -45.4972 -45.3792 -45.3189  10.6230  15.0481  16.1055  16.2777
    16.4502  16.9935  36.7303  38.6047  39.4271

     occupation numbers 
     1.0000   1.0000   1.0000   1.0000   1.0000   1.0000   1.0000   1.0000
     1.0000   1.0413   0.0000   0.0000   0.0000

          k =-0.1667 0.1667 0.1667 (   320 PWs)   bands (ev):

   -85.6115 -45.5288 -45.5288 -45.4693   9.7382  15.3973  15.7779  15.7779
    16.6971  16.6971  36.1210  41.9202  43.3928

     occupation numbers 
     1.0000   1.0000   1.0000   1.0000   1.0000   1.0000   1.0000   1.0000
     1.0010   1.0010   0.0000   0.0000   0.0000

          k =-0.2778 0.2778 0.0556 (   317 PWs)   bands (ev):

   -85.6040 -45.5269 -45.4840 -45.4428  10.6095  15.2192  15.8455  15.9711
    16.4866  17.0561  34.5393  37.0309  44.3298

     occupation numbers 
     1.0000   1.0000   1.0000   1.0000   1.0000   1.0000   1.0000   1.0000
     1.0000   1.0625   0.0000   0.0000   0.0000

          k =-0.3889 0.3889-0.0556 (   313 PWs)   bands (ev):

   -85.5920 -45.5078 -45.4489 -45.3704  12.1349  15.0301  15.6531  16.2275
    16.6203  17.6964  31.3147  33.8767  42.8946

     occupation numbers 
     1.0000   1.0000   1.0000   1.0000   1.0000   1.0000   1.0000   1.0000
     1.0002   0.1095   0.0000   0.0000   0.0000

          k = 0.5000-0.5000 0.8333 (   314 PWs)   bands (ev):

   -85.5827 -45.5338 -45.4483 -45.3871  13.4379  15.2421  15.4072  16.0639
    17.1402  18.7968  26.5755  33.7486  40.5883

     occupation numbers 
     1.0000   1.0000   1.0000   1.0000   1.0000   1.0000   1.0000   1.0000
     1.0828   0.0000   0.0000   0.0000   0.0000

          k = 0.3889-0.3889 0.7222 (   315 PWs)   bands (ev):

   -85.5789 -45.5423 -45.4709 -45.3877  13.7147  15.1267  15.7881  16.0373
    17.3956  20.1064  23.8228  34.5133  38.4593

     occupation numbers 
     1.0000   1.0000   1.0000   1.0000   1.0000   1.0000   1.0000   1.0000
     0.7823   0.0000   0.0000   0.0000   0.0000

          k = 0.2778-0.2778 0.6111 (   319 PWs)   bands (ev):

   -85.5842 -45.6066 -45.5045 -45.4490  13.3547  14.9847  15.5204  16.1051
    17.5010  18.4574  26.5279  36.0265  37.4058

     occupation numbers 
     1.0000   1.0000   1.0000   1.0000   1.0000   1.0000   1.0000   1.0000
     0.4967   0.0000   0.0000   0.0000   0.0000

          k = 0.1667-0.1667 0.5000 (   313 PWs)   bands (ev):

   -85.5915 -45.5019 -45.4281 -45.4028  12.1066  14.8226  15.7595  16.2727
    17.1325  17.3020  31.3054  37.4928  37.9341

     occupation numbers 
     1.0000   1.0000   1.0000   1.0000   1.0000   1.0000   1.0000   1.0000
     1.0821   0.9779   0.0000   0.0000   0.0000

          k =-0.1667 0.3889 0.1667 (   312 PWs)   bands (ev):

   -85.5981 -45.4695 -45.4567 -45.3499  11.1440  15.0668  15.8903  16.0290
    16.8157  17.1274  32.7423  39.2980  39.6974

     occupation numbers 
     1.0000   1.0000   1.0000   1.0000   1.0000   1.0000   1.0000   1.0000
     1.0061   1.0814   0.0000   0.0000   0.0000

          k =-0.2778 0.5000 0.0556 (   314 PWs)   bands (ev):

   -85.5907 -45.5122 -45.4804 -45.3918  12.3428  14.8317  15.6197  16.4121
    16.7730  17.6870  31.5153  34.0108  39.0264

     occupation numbers 
     1.0000   1.0000   1.0000   1.0000   1.0000   1.0000   1.0000   1.0000
     1.0033   0.1202   0.0000   0.0000   0.0000

          k = 0.6111-0.3889 0.9444 (   317 PWs)   bands (ev):

   -85.5826 -45.5812 -45.4975 -45.4157  13.6545  14.7995  15.1778  16.5516
    16.9950  18.9564  28.6603  31.4351  36.4394

     occupation numbers 
     1.0000   1.0000   1.0000   1.0000   1.0000   1.0000   1.0000   1.0001
     1.0418   0.0000   0.0000   0.0000   0.0000

          k = 0.5000-0.2778 0.8333 (   312 PWs)   bands (ev):

   -85.5755 -45.4580 -45.4370 -45.4129  14.1990  14.7384  15.3526  16.4130
    17.4055  21.2180  24.6669  31.8918  34.4753

     occupation numbers 
     1.0000   1.0000   1.0000   1.0000   1.0000   1.0000   1.0000   1.0000
     0.7570   0.0000   0.0000   0.0000   0.0000

          k = 0.3889-0.1667 0.7222 (   316 PWs)   bands (ev):

   -85.5776 -45.5239 -45.4785 -45.4503  14.0234  14.6977  15.3199  16.4951
    17.4004  20.3034  25.8030  32.7433  33.8573

     occupation numbers 
     1.0000   1.0000   1.0000   1.0000   1.0000   1.0000   1.0000   1.0000
     0.7701   0.0000   0.0000   0.0000   0.0000

          k = 0.2778-0.0556 0.6111 (   317 PWs)   bands (ev):

   -85.5852 -45.6017 -45.4699 -45.4383  13.1936  14.6051  15.4466  16.6900
    17.0423  18.2356  30.2790  32.7791  35.7674

     occupation numbers 
     1.0000   1.0000   1.0000   1.0000   1.0000   1.0000   1.0000   1.0009
     1.0578   0.0000   0.0000   0.0000   0.0000

          k =-0.1667 0.6111 0.1667 (   320 PWs)   bands (ev):

   -85.5873 -45.6243 -45.5013 -45.4948  12.9670  14.5388  15.6714  16.4821
    17.3847  17.7324  30.0626  35.1897  35.9423

     occupation numbers 
     1.0000   1.0000   1.0000   1.0000   1.0000   1.0000   1.0000   1.0000
     0.8096   0.0748   0.0000   0.0000   0.0000

          k = 0.7222-0.2778 1.0556 (   319 PWs)   bands (ev):

   -85.5799 -45.6041 -45.5269 -45.4522  13.6771  14.4011  15.5814  16.9012
    17.2749  19.2434  29.2695  31.6340  32.8540

     occupation numbers 
     1.0000   1.0000   1.0000   1.0000   1.0000   1.0000   1.0000   1.0173
     1.0158   0.0000   0.0000   0.0000   0.0000

          k = 0.6111-0.1667 0.9444 (   316 PWs)   bands (ev):

   -85.5738 -45.5265 -45.5039 -45.4257  14.1376  14.5655  15.3222  16.8171
    17.4899  21.8371  26.9210  29.6569  30.7955

     occupation numbers 
     1.0000   1.0000   1.0000   1.0000   1.0000   1.0000   1.0000   1.0062
     0.5269   0.0000   0.0000   0.0000   0.0000

          k = 0.5000-0.0556 0.8333 (   313 PWs)   bands (ev):

   -85.5723 -45.4855 -45.4559 -45.4103  14.3443  14.7494  15.0376  16.7046
    17.5604  23.0480  25.4252  28.9951  31.3524

     occupation numbers 
     1.0000   1.0000   1.0000   1.0000   1.0000   1.0000   1.0000   1.0011
     0.3453   0.0000   0.0000   0.0000   0.0000

          k = 0.3889 0.0556 0.7222 (   315 PWs)   bands (ev):

   -85.5770 -45.5253 -45.4685 -45.4270  14.0987  14.6622  15.1330  16.7258
    17.2587  20.2667  27.6618  30.5390  33.3331

     occupation numbers 
     1.0000   1.0000   1.0000   1.0000   1.0000   1.0000   1.0000   1.0016
     1.0341   0.0000   0.0000   0.0000   0.0000

          k =-0.1667-1.1667 0.1667 (   318 PWs)   bands (ev):

   -85.5756 -45.5551 -45.5239 -45.4810  13.6297  14.1425  16.2869  16.9923
    17.5535  20.2555  28.2162  29.6596  33.8434

     occupation numbers 
     1.0000   1.0000   1.0000   1.0000   1.0000   1.0000   1.0000   1.0409
     0.3616   0.0000   0.0000   0.0000   0.0000

          k =-0.2778-1.0556 0.0556 (   314 PWs)   bands (ev):

   -85.5714 -45.5096 -45.4491 -45.4466  13.7810  14.1861  16.1715  17.0857
    17.7003  22.1032  27.4750  28.3820  30.9829

     occupation numbers 
     1.0000   1.0000   1.0000   1.0000   1.0000   1.0000   1.0000   1.0719
     0.1052   0.0000   0.0000   0.0000   0.0000

          k =-0.3889-0.9444-0.0556 (   315 PWs)   bands (ev):

   -85.5716 -45.5098 -45.5061 -45.4061  14.0541  14.5296  15.5039  16.8482
    17.6749  23.4612  26.4453  28.0346  29.9740

     occupation numbers 
     1.0000   1.0000   1.0000   1.0000   1.0000   1.0000   1.0000   1.0093
     0.1353   0.0000   0.0000   0.0000   0.0000

          k =-0.5000-0.8333-0.1667 (   312 PWs)   bands (ev):

   -85.5732 -45.4954 -45.4557 -45.3678  14.4967  14.5322  15.2425  16.5788
    17.4656  22.6085  24.4008  30.9808  31.9852

     occupation numbers 
     1.0000   1.0000   1.0000   1.0000   1.0000   1.0000   1.0000   1.0001
     0.5938   0.0000   0.0000   0.0000   0.0000

          k =-0.1667-0.9444 0.1667 (   316 PWs)   bands (ev):

   -85.5725 -45.5418 -45.4956 -45.4567  13.6430  14.0610  16.5154  17.1429
    17.6384  21.5646  27.2489  28.3132  33.3961

     occupation numbers 
     1.0000   1.0000   1.0000   1.0000   1.0000   1.0000   1.0000   1.0830
     0.1888   0.0000   0.0000   0.0000   0.0000

          k =-0.2778-0.8333 0.0556 (   315 PWs)   bands (ev):

   -85.5741 -45.5404 -45.4712 -45.4275  13.7945  14.2643  15.9305  17.0467
    17.5203  20.7477  28.4845  29.7035  31.4031

     occupation numbers 
     1.0000   1.0000   1.0000   1.0000   1.0000   1.0000   1.0000   1.0593
     0.4453   0.0000   0.0000   0.0000   0.0000

          k =-0.1667-0.7222 0.1667 (   317 PWs)   bands (ev):

   -85.5800 -45.6059 -45.4989 -45.4221  13.4883  14.3161  15.9491  16.7709
    17.5005  18.8078  29.0405  32.2771  34.7145

     occupation numbers 
     1.0000   1.0000   1.0000   1.0000   1.0000   1.0000   1.0000   1.0032
     0.4980   0.0000   0.0000   0.0000   0.0000

          k =-0.2778 0.2778 0.2778 (   311 PWs)   bands (ev):

   -85.5965 -45.4446 -45.3964 -45.3964  11.3676  15.2788  15.8552  15.8552
    17.0286  17.0286  30.7050  40.9876  42.5500

     occupation numbers 
     1.0000   1.0000   1.0000   1.0000   1.0000   1.0000   1.0000   1.0000
     1.0531   1.0531   0.0000   0.0000   0.0000

          k =-0.3889 0.3889 0.1667 (   313 PWs)   bands (ev):

   -85.5909 -45.5320 -45.4133 -45.3770  12.2782  15.1843  15.6848  15.9741
    16.9347  17.6031  29.3002  36.3420  42.2899

     occupation numbers 
     1.0000   1.0000   1.0000   1.0000   1.0000   1.0000   1.0000   1.0000
     1.0245   0.2528   0.0000   0.0000   0.0000

          k = 0.5000-0.5000 1.0556 (   313 PWs)   bands (ev):

   -85.5825 -45.5453 -45.4428 -45.3533  13.5512  15.0255  15.2615  16.3401
    16.8726  18.8671  28.4705  31.2981  40.3368

     occupation numbers 
     1.0000   1.0000   1.0000   1.0000   1.0000   1.0000   1.0000   1.0000
     1.0125   0.0000   0.0000   0.0000   0.0000

          k = 0.3889-0.3889 0.9444 (   315 PWs)   bands (ev):

   -85.5762 -45.5034 -45.4622 -45.4282  14.2692  14.7093  15.2347  16.5014
    17.1731  21.0703  25.9331  29.4292  37.4942

     occupation numbers 
     1.0000   1.0000   1.0000   1.0000   1.0000   1.0000   1.0000   1.0000
     1.0819   0.0000   0.0000   0.0000   0.0000

          k = 0.2778-0.2778 0.8333 (   312 PWs)   bands (ev):

   -85.5739 -45.4584 -45.4431 -45.4210  14.0694  14.4915  15.6432  16.6705
    17.5199  21.6458  24.9194  30.4087  35.5300

     occupation numbers 
     1.0000   1.0000   1.0000   1.0000   1.0000   1.0000   1.0000   1.0006
     0.4462   0.0000   0.0000   0.0000   0.0000

          k =-0.2778 0.5000 0.2778 (   318 PWs)   bands (ev):

   -85.5887 -45.5705 -45.4763 -45.4424  12.7273  15.1885  15.6492  15.9161
    17.4208  17.5216  27.6834  38.5421  38.8403

     occupation numbers 
     1.0000   1.0000   1.0000   1.0000   1.0000   1.0000   1.0000   1.0000
     0.7166   0.4418   0.0000   0.0000   0.0000

          k = 0.6111-0.3889 1.1667 (   317 PWs)   bands (ev):

   -85.5825 -45.5675 -45.4683 -45.4538  13.5850  14.9573  15.3441  16.2504
    17.2528  18.9564  26.7403  33.8682  36.6905

     occupation numbers 
     1.0000   1.0000   1.0000   1.0000   1.0000   1.0000   1.0000   1.0000
     1.0400   0.0000   0.0000   0.0000   0.0000

          k = 0.5000-0.2778 1.0556 (   315 PWs)   bands (ev):

   -85.5754 -45.5262 -45.4588 -45.4234  14.3899  14.6605  15.0522  16.5975
    17.2888  21.3279  26.1797  29.5449  34.1634

     occupation numbers 
     1.0000   1.0000   1.0000   1.0000   1.0000   1.0000   1.0000   1.0002
     0.9976   0.0000   0.0000   0.0000   0.0000

          k = 0.3889-0.1667 0.9444 (   314 PWs)   bands (ev):

   -85.5719 -45.4994 -45.4851 -45.3886  14.1925  14.4848  15.4658  16.8268
    17.5450  23.7390  24.6493  28.3964  32.2944

     occupation numbers 
     1.0000   1.0000   1.0000   1.0000   1.0000   1.0000   1.0000   1.0071
     0.3824   0.0000   0.0000   0.0000   0.0000

          k =-0.2778-1.2778 0.2778 (   314 PWs)   bands (ev):

   -85.5781 -45.5125 -45.4581 -45.4272  13.8337  14.7118  15.5452  16.3959
    17.5399  19.9279  25.6053  33.1260  36.2919

     occupation numbers 
     1.0000   1.0000   1.0000   1.0000   1.0000   1.0000   1.0000   1.0000
     0.3950   0.0000   0.0000   0.0000   0.0000

          k =-0.3889-1.1667 0.1667 (   317 PWs)   bands (ev):

   -85.5748 -45.5341 -45.5096 -45.4467  14.2204  14.4981  15.3841  16.6558
    17.4567  22.0237  25.1033  30.5102  32.6540

     occupation numbers 
     1.0000   1.0000   1.0000   1.0000   1.0000   1.0000   1.0000   1.0005
     0.6186   0.0000   0.0000   0.0000   0.0000

          k =-0.5000-1.0556 0.0556 (   316 PWs)   bands (ev):

   -85.5721 -45.5377 -45.5046 -45.4205  14.1803  14.9383  14.9823  16.7089
    17.6601  24.7115  25.1332  28.2008  29.5038

     occupation numbers 
     1.0000   1.0000   1.0000   1.0000   1.0000   1.0000   1.0000   1.0012
     0.1555   0.0000   0.0000   0.0000   0.0000

          k =-0.2778-1.0556 0.2778 (   313 PWs)   bands (ev):

   -85.5720 -45.5222 -45.4676 -45.3491  14.1081  14.3938  15.7667  16.8507
    17.4120  23.3712  24.4175  28.3016  35.1363

     occupation numbers 
     1.0000   1.0000   1.0000   1.0000   1.0000   1.0000   1.0000   1.0096
     0.7400   0.0000   0.0000   0.0000   0.0000

          k =-0.3889 0.3889 0.3889 (   320 PWs)   bands (ev):

   -85.5883 -45.6307 -45.4582 -45.4582  12.7791  15.7020  15.7020  16.0016
    17.3019  17.3019  25.9747  40.0332  42.1711

     occupation numbers 
     1.0000   1.0000   1.0000   1.0000   1.0000   1.0000   1.0000   1.0000
     0.9781   0.9781   0.0000   0.0000   0.0000

          k = 0.5000-0.5000 1.2778 (   316 PWs)   bands (ev):

   -85.5829 -45.5521 -45.4410 -45.4273  13.2979  15.4896  15.8389  15.8625
    17.2863  18.5403  25.0097  36.4457  40.8748

     occupation numbers 
     1.0000   1.0000   1.0000   1.0000   1.0000   1.0000   1.0000   1.0000
     1.0010   0.0000   0.0000   0.0000   0.0000

          k = 0.3889-0.3889 1.1667 (   309 PWs)   bands (ev):

   -85.5752 -45.4185 -45.3946 -45.3800  14.0624  14.8859  15.5293  16.2932
    17.3630  20.9030  24.5352  31.7675  37.8131

     occupation numbers 
     1.0000   1.0000   1.0000   1.0000   1.0000   1.0000   1.0000   1.0000
     0.8605   0.0000   0.0000   0.0000   0.0000

          k =-0.3889-1.3889 0.3889 (   318 PWs)   bands (ev):

   -85.5821 -45.5987 -45.4673 -45.4265  13.3949  15.3866  15.8346  16.0417
    17.4782  18.8239  24.0695  37.2830  39.4131

     occupation numbers 
     1.0000   1.0000   1.0000   1.0000   1.0000   1.0000   1.0000   1.0000
     0.5590   0.0000   0.0000   0.0000   0.0000

          k =-0.5000-1.2778 0.2778 (   312 PWs)   bands (ev):

   -85.5771 -45.5033 -45.4185 -45.3881  13.8890  14.9881  15.6411  16.1601
    17.4283  20.6241  23.9364  34.2635  35.4518

     occupation numbers 
     1.0000   1.0000   1.0000   1.0000   1.0000   1.0000   1.0000   1.0000
     0.6966   0.0000   0.0000   0.0000   0.0000

          k = 0.5000-0.5000-0.5000 (   332 PWs)   bands (ev):

   -85.5874 -45.7452 -45.5937 -45.5937  13.0910  15.5448  15.5448  17.1918
    17.3821  17.3821  23.5594  39.6500  42.1108

     occupation numbers 
     1.0000   1.0000   1.0000   1.0000   1.0000   1.0000   1.0000   1.0777
     0.8158   0.8158   0.0000   0.0000   0.0000

     the Fermi energy is    17.5377 ev

!    total energy              =    -338.87841893 Ry
     Harris-Foulkes estimate   =    -338.87841893 Ry
     estimated scf accuracy    <          2.2E-09 Ry

     The total energy is the sum of the following terms:

     one-electron contribution =    -186.21972477 Ry
     hartree contribution      =     104.32624967 Ry
     xc contribution           =     -33.90391186 Ry
     ewald contribution        =    -223.08083981 Ry
     smearing contrib. (-TS)   =      -0.00019216 Ry

     convergence has been achieved in   6 iterations

     Writing output data file Ni_exc2.save

     init_run     :      2.66s CPU      2.72s WALL (       1 calls)
     electrons    :     16.67s CPU     17.09s WALL (       1 calls)

     Called by init_run:
     wfcinit      :      0.82s CPU      0.88s WALL (       1 calls)
     potinit      :      0.02s CPU      0.02s WALL (       1 calls)

     Called by electrons:
     c_bands      :     14.24s CPU     14.60s WALL (       7 calls)
     sum_band     :      2.02s CPU      2.07s WALL (       7 calls)
     v_of_rho     :      0.13s CPU      0.12s WALL (       7 calls)
     v_h          :      0.00s CPU      0.00s WALL (       7 calls)
     v_xc         :      0.12s CPU      0.12s WALL (       7 calls)
     newd         :      0.30s CPU      0.31s WALL (       7 calls)
     mix_rho      :      0.00s CPU      0.01s WALL (       7 calls)

     Called by c_bands:
     init_us_2    :      0.64s CPU      0.63s WALL (    1275 calls)
     cegterg      :     13.42s CPU     13.75s WALL (     595 calls)

     Called by sum_band:
     sum_band:bec :      0.02s CPU      0.02s WALL (     595 calls)
     addusdens    :      0.22s CPU      0.23s WALL (       7 calls)

     Called by *egterg:
     h_psi        :      7.85s CPU      8.16s WALL (    2019 calls)
     s_psi        :      0.80s CPU      0.76s WALL (    2019 calls)
     g_psi        :      0.07s CPU      0.06s WALL (    1339 calls)
     cdiaghg      :      2.08s CPU      2.11s WALL (    1849 calls)
     cegterg:over :      1.41s CPU      1.34s WALL (    1339 calls)
     cegterg:upda :      0.71s CPU      0.79s WALL (    1339 calls)
     cegterg:last :      0.42s CPU      0.48s WALL (     595 calls)

     Called by h_psi:
     h_psi:vloc   :      6.35s CPU      6.53s WALL (    2019 calls)
     h_psi:vnl    :      1.45s CPU      1.58s WALL (    2019 calls)
     add_vuspsi   :      0.70s CPU      0.75s WALL (    2019 calls)

     General routines
     calbec       :      1.01s CPU      1.10s WALL (    2614 calls)
     fft          :      0.02s CPU      0.02s WALL (      93 calls)
     fftw         :      5.90s CPU      6.06s WALL (   46901 calls)
     davcio       :      0.00s CPU      0.03s WALL (      85 calls)

     Parallel routines
     fft_scatter  :      0.71s CPU      0.77s WALL (   46994 calls)

     PWSCF        :    20.52s CPU        21.17s WALL


   This run was terminated on:  21:56:13  18Feb2020            

=------------------------------------------------------------------------------=
   JOB DONE.
=------------------------------------------------------------------------------=
