
     Program PWSCF v.5.1 starts on 18Feb2020 at 21:55:29 

     This program is part of the open-source Quantum ESPRESSO suite
     for quantum simulation of materials; please cite
         "P. Giannozzi et al., J. Phys.:Condens. Matter 21 395502 (2009);
          URL http://www.quantum-espresso.org", 
     in publications or presentations arising from this work. More details at
     http://www.quantum-espresso.org/quote

     Parallel version (MPI), running on     1 processors
     Waiting for input...
     Reading input from standard input

     Current dimensions of program PWSCF are:
     Max number of different atomic species (ntypx) = 10
     Max number of k-points (npk) =  40000
     Max angular momentum in pseudopotentials (lmaxx) =  3

     Subspace diagonalization in iterative solution of the eigenvalue problem:
     a serial algorithm will be used


     G-vector sticks info
     --------------------
     sticks:   dense  smooth     PW     G-vecs:    dense   smooth      PW
     Sum         253     253     85                 2565     2565     537



     bravais-lattice index     =            2
     lattice parameter (alat)  =       6.6590  a.u.
     unit-cell volume          =      73.8188 (a.u.)^3
     number of atoms/cell      =            1
     number of atomic types    =            1
     number of electrons       =        18.00
     number of Kohn-Sham states=           13
     kinetic-energy cutoff     =      40.0000  Ry
     charge density cutoff     =     160.0000  Ry
     convergence threshold     =      1.0E-06
     mixing beta               =       0.7000
     number of iterations used =            8  plain     mixing
     Exchange-correlation      = PBESOL ( 1  4 10  8 0)

     celldm(1)=   6.659000  celldm(2)=   0.000000  celldm(3)=   0.000000
     celldm(4)=   0.000000  celldm(5)=   0.000000  celldm(6)=   0.000000

     crystal axes: (cart. coord. in units of alat)
               a(1) = (  -0.500000   0.000000   0.500000 )  
               a(2) = (   0.000000   0.500000   0.500000 )  
               a(3) = (  -0.500000   0.500000   0.000000 )  

     reciprocal axes: (cart. coord. in units 2 pi/alat)
               b(1) = ( -1.000000 -1.000000  1.000000 )  
               b(2) = (  1.000000  1.000000  1.000000 )  
               b(3) = ( -1.000000  1.000000 -1.000000 )  


     PseudoPot. # 1 for Ni read from file:
     ../pseudo/Ni.pbesol-spn-rrkjus_psl.1.0.0.UPF
     MD5 check sum: 6fc0a587bf949a08f2faed986b854013
     Pseudo is Ultrasoft + core correction, Zval = 18.0
     Generated using "atomic" code by A. Dal Corso  v.6.3
     Using radial grid of 1195 points,  6 beta functions with: 
                l(1) =   0
                l(2) =   0
                l(3) =   1
                l(4) =   1
                l(5) =   2
                l(6) =   2
     Q(r) pseudized with 0 coefficients 


     atomic species   valence    mass     pseudopotential
        Ni            18.00    58.69000     Ni( 1.00)

     48 Sym. Ops., with inversion, found


                                    s                        frac. trans.

      isym =  1     identity                                     

 cryst.   s( 1) = (     1          0          0      )
                  (     0          1          0      )
                  (     0          0          1      )

 cart.    s( 1) = (  1.0000000  0.0000000  0.0000000 )
                  (  0.0000000  1.0000000  0.0000000 )
                  (  0.0000000  0.0000000  1.0000000 )


      isym =  2     180 deg rotation - cart. axis [0,0,1]        

 cryst.   s( 2) = (     0          1         -1      )
                  (     1          0         -1      )
                  (     0          0         -1      )

 cart.    s( 2) = ( -1.0000000  0.0000000  0.0000000 )
                  (  0.0000000 -1.0000000  0.0000000 )
                  (  0.0000000  0.0000000  1.0000000 )


      isym =  3     180 deg rotation - cart. axis [0,1,0]        

 cryst.   s( 3) = (    -1          0          0      )
                  (    -1          0          1      )
                  (    -1          1          0      )

 cart.    s( 3) = ( -1.0000000  0.0000000  0.0000000 )
                  (  0.0000000  1.0000000  0.0000000 )
                  (  0.0000000  0.0000000 -1.0000000 )


      isym =  4     180 deg rotation - cart. axis [1,0,0]        

 cryst.   s( 4) = (     0         -1          1      )
                  (     0         -1          0      )
                  (     1         -1          0      )

 cart.    s( 4) = (  1.0000000  0.0000000  0.0000000 )
                  (  0.0000000 -1.0000000  0.0000000 )
                  (  0.0000000  0.0000000 -1.0000000 )


      isym =  5     180 deg rotation - cart. axis [1,1,0]        

 cryst.   s( 5) = (     0         -1          0      )
                  (    -1          0          0      )
                  (     0          0         -1      )

 cart.    s( 5) = (  0.0000000  1.0000000  0.0000000 )
                  (  1.0000000  0.0000000  0.0000000 )
                  (  0.0000000  0.0000000 -1.0000000 )


      isym =  6     180 deg rotation - cart. axis [1,-1,0]       

 cryst.   s( 6) = (    -1          0          1      )
                  (     0         -1          1      )
                  (     0          0          1      )

 cart.    s( 6) = (  0.0000000 -1.0000000  0.0000000 )
                  ( -1.0000000  0.0000000  0.0000000 )
                  (  0.0000000  0.0000000 -1.0000000 )


      isym =  7      90 deg rotation - cart. axis [0,0,-1]       

 cryst.   s( 7) = (     0          1          0      )
                  (     0          1         -1      )
                  (    -1          1          0      )

 cart.    s( 7) = (  0.0000000  1.0000000  0.0000000 )
                  ( -1.0000000  0.0000000  0.0000000 )
                  (  0.0000000  0.0000000  1.0000000 )


      isym =  8      90 deg rotation - cart. axis [0,0,1]        

 cryst.   s( 8) = (     1          0         -1      )
                  (     1          0          0      )
                  (     1         -1          0      )

 cart.    s( 8) = (  0.0000000 -1.0000000  0.0000000 )
                  (  1.0000000  0.0000000  0.0000000 )
                  (  0.0000000  0.0000000  1.0000000 )


      isym =  9     180 deg rotation - cart. axis [1,0,1]        

 cryst.   s( 9) = (    -1          0          0      )
                  (     0          0         -1      )
                  (     0         -1          0      )

 cart.    s( 9) = (  0.0000000  0.0000000  1.0000000 )
                  (  0.0000000 -1.0000000  0.0000000 )
                  (  1.0000000  0.0000000  0.0000000 )


      isym = 10     180 deg rotation - cart. axis [-1,0,1]       

 cryst.   s(10) = (     1          0          0      )
                  (     1         -1          0      )
                  (     1          0         -1      )

 cart.    s(10) = (  0.0000000  0.0000000 -1.0000000 )
                  (  0.0000000 -1.0000000  0.0000000 )
                  ( -1.0000000  0.0000000  0.0000000 )


      isym = 11      90 deg rotation - cart. axis [0,1,0]        

 cryst.   s(11) = (     0          1         -1      )
                  (    -1          1          0      )
                  (     0          1          0      )

 cart.    s(11) = (  0.0000000  0.0000000  1.0000000 )
                  (  0.0000000  1.0000000  0.0000000 )
                  ( -1.0000000  0.0000000  0.0000000 )


      isym = 12      90 deg rotation - cart. axis [0,-1,0]       

 cryst.   s(12) = (     0         -1          1      )
                  (     0          0          1      )
                  (    -1          0          1      )

 cart.    s(12) = (  0.0000000  0.0000000 -1.0000000 )
                  (  0.0000000  1.0000000  0.0000000 )
                  (  1.0000000  0.0000000  0.0000000 )


      isym = 13     180 deg rotation - cart. axis [0,1,1]        

 cryst.   s(13) = (    -1          1          0      )
                  (     0          1          0      )
                  (     0          1         -1      )

 cart.    s(13) = ( -1.0000000  0.0000000  0.0000000 )
                  (  0.0000000  0.0000000  1.0000000 )
                  (  0.0000000  1.0000000  0.0000000 )


      isym = 14     180 deg rotation - cart. axis [0,1,-1]       

 cryst.   s(14) = (     0          0         -1      )
                  (     0         -1          0      )
                  (    -1          0          0      )

 cart.    s(14) = ( -1.0000000  0.0000000  0.0000000 )
                  (  0.0000000  0.0000000 -1.0000000 )
                  (  0.0000000 -1.0000000  0.0000000 )


      isym = 15      90 deg rotation - cart. axis [-1,0,0]       

 cryst.   s(15) = (     0          0          1      )
                  (    -1          0          1      )
                  (     0         -1          1      )

 cart.    s(15) = (  1.0000000  0.0000000  0.0000000 )
                  (  0.0000000  0.0000000  1.0000000 )
                  (  0.0000000 -1.0000000  0.0000000 )


      isym = 16      90 deg rotation - cart. axis [1,0,0]        

 cryst.   s(16) = (     1         -1          0      )
                  (     1          0         -1      )
                  (     1          0          0      )

 cart.    s(16) = (  1.0000000  0.0000000  0.0000000 )
                  (  0.0000000  0.0000000 -1.0000000 )
                  (  0.0000000  1.0000000  0.0000000 )


      isym = 17     120 deg rotation - cart. axis [-1,-1,-1]     

 cryst.   s(17) = (    -1          0          1      )
                  (    -1          1          0      )
                  (    -1          0          0      )

 cart.    s(17) = (  0.0000000  1.0000000  0.0000000 )
                  (  0.0000000  0.0000000  1.0000000 )
                  (  1.0000000  0.0000000  0.0000000 )


      isym = 18     120 deg rotation - cart. axis [-1,1,1]       

 cryst.   s(18) = (     0          1          0      )
                  (     0          0          1      )
                  (     1          0          0      )

 cart.    s(18) = (  0.0000000 -1.0000000  0.0000000 )
                  (  0.0000000  0.0000000  1.0000000 )
                  ( -1.0000000  0.0000000  0.0000000 )


      isym = 19     120 deg rotation - cart. axis [1,1,-1]       

 cryst.   s(19) = (     1          0         -1      )
                  (     0          0         -1      )
                  (     0          1         -1      )

 cart.    s(19) = (  0.0000000  1.0000000  0.0000000 )
                  (  0.0000000  0.0000000 -1.0000000 )
                  ( -1.0000000  0.0000000  0.0000000 )


      isym = 20     120 deg rotation - cart. axis [1,-1,1]       

 cryst.   s(20) = (     0         -1          0      )
                  (     1         -1          0      )
                  (     0         -1          1      )

 cart.    s(20) = (  0.0000000 -1.0000000  0.0000000 )
                  (  0.0000000  0.0000000 -1.0000000 )
                  (  1.0000000  0.0000000  0.0000000 )


      isym = 21     120 deg rotation - cart. axis [1,1,1]        

 cryst.   s(21) = (     0          0         -1      )
                  (     0          1         -1      )
                  (     1          0         -1      )

 cart.    s(21) = (  0.0000000  0.0000000  1.0000000 )
                  (  1.0000000  0.0000000  0.0000000 )
                  (  0.0000000  1.0000000  0.0000000 )


      isym = 22     120 deg rotation - cart. axis [-1,1,-1]      

 cryst.   s(22) = (    -1          1          0      )
                  (    -1          0          0      )
                  (    -1          0          1      )

 cart.    s(22) = (  0.0000000  0.0000000  1.0000000 )
                  ( -1.0000000  0.0000000  0.0000000 )
                  (  0.0000000 -1.0000000  0.0000000 )


      isym = 23     120 deg rotation - cart. axis [1,-1,-1]      

 cryst.   s(23) = (     0          0          1      )
                  (     1          0          0      )
                  (     0          1          0      )

 cart.    s(23) = (  0.0000000  0.0000000 -1.0000000 )
                  ( -1.0000000  0.0000000  0.0000000 )
                  (  0.0000000  1.0000000  0.0000000 )


      isym = 24     120 deg rotation - cart. axis [-1,-1,1]      

 cryst.   s(24) = (     1         -1          0      )
                  (     0         -1          1      )
                  (     0         -1          0      )

 cart.    s(24) = (  0.0000000  0.0000000 -1.0000000 )
                  (  1.0000000  0.0000000  0.0000000 )
                  (  0.0000000 -1.0000000  0.0000000 )


      isym = 25     inversion                                    

 cryst.   s(25) = (    -1          0          0      )
                  (     0         -1          0      )
                  (     0          0         -1      )

 cart.    s(25) = ( -1.0000000  0.0000000  0.0000000 )
                  (  0.0000000 -1.0000000  0.0000000 )
                  (  0.0000000  0.0000000 -1.0000000 )


      isym = 26     inv. 180 deg rotation - cart. axis [0,0,1]   

 cryst.   s(26) = (     0         -1          1      )
                  (    -1          0          1      )
                  (     0          0          1      )

 cart.    s(26) = (  1.0000000  0.0000000  0.0000000 )
                  (  0.0000000  1.0000000  0.0000000 )
                  (  0.0000000  0.0000000 -1.0000000 )


      isym = 27     inv. 180 deg rotation - cart. axis [0,1,0]   

 cryst.   s(27) = (     1          0          0      )
                  (     1          0         -1      )
                  (     1         -1          0      )

 cart.    s(27) = (  1.0000000  0.0000000  0.0000000 )
                  (  0.0000000 -1.0000000  0.0000000 )
                  (  0.0000000  0.0000000  1.0000000 )


      isym = 28     inv. 180 deg rotation - cart. axis [1,0,0]   

 cryst.   s(28) = (     0          1         -1      )
                  (     0          1          0      )
                  (    -1          1          0      )

 cart.    s(28) = ( -1.0000000  0.0000000  0.0000000 )
                  (  0.0000000  1.0000000  0.0000000 )
                  (  0.0000000  0.0000000  1.0000000 )


      isym = 29     inv. 180 deg rotation - cart. axis [1,1,0]   

 cryst.   s(29) = (     0          1          0      )
                  (     1          0          0      )
                  (     0          0          1      )

 cart.    s(29) = (  0.0000000 -1.0000000  0.0000000 )
                  ( -1.0000000  0.0000000  0.0000000 )
                  (  0.0000000  0.0000000  1.0000000 )


      isym = 30     inv. 180 deg rotation - cart. axis [1,-1,0]  

 cryst.   s(30) = (     1          0         -1      )
                  (     0          1         -1      )
                  (     0          0         -1      )

 cart.    s(30) = (  0.0000000  1.0000000  0.0000000 )
                  (  1.0000000  0.0000000  0.0000000 )
                  (  0.0000000  0.0000000  1.0000000 )


      isym = 31     inv.  90 deg rotation - cart. axis [0,0,-1]  

 cryst.   s(31) = (     0         -1          0      )
                  (     0         -1          1      )
                  (     1         -1          0      )

 cart.    s(31) = (  0.0000000 -1.0000000  0.0000000 )
                  (  1.0000000  0.0000000  0.0000000 )
                  (  0.0000000  0.0000000 -1.0000000 )


      isym = 32     inv.  90 deg rotation - cart. axis [0,0,1]   

 cryst.   s(32) = (    -1          0          1      )
                  (    -1          0          0      )
                  (    -1          1          0      )

 cart.    s(32) = (  0.0000000  1.0000000  0.0000000 )
                  ( -1.0000000  0.0000000  0.0000000 )
                  (  0.0000000  0.0000000 -1.0000000 )


      isym = 33     inv. 180 deg rotation - cart. axis [1,0,1]   

 cryst.   s(33) = (     1          0          0      )
                  (     0          0          1      )
                  (     0          1          0      )

 cart.    s(33) = (  0.0000000  0.0000000 -1.0000000 )
                  (  0.0000000  1.0000000  0.0000000 )
                  ( -1.0000000  0.0000000  0.0000000 )


      isym = 34     inv. 180 deg rotation - cart. axis [-1,0,1]  

 cryst.   s(34) = (    -1          0          0      )
                  (    -1          1          0      )
                  (    -1          0          1      )

 cart.    s(34) = (  0.0000000  0.0000000  1.0000000 )
                  (  0.0000000  1.0000000  0.0000000 )
                  (  1.0000000  0.0000000  0.0000000 )


      isym = 35     inv.  90 deg rotation - cart. axis [0,1,0]   

 cryst.   s(35) = (     0         -1          1      )
                  (     1         -1          0      )
                  (     0         -1          0      )

 cart.    s(35) = (  0.0000000  0.0000000 -1.0000000 )
                  (  0.0000000 -1.0000000  0.0000000 )
                  (  1.0000000  0.0000000  0.0000000 )


      isym = 36     inv.  90 deg rotation - cart. axis [0,-1,0]  

 cryst.   s(36) = (     0          1         -1      )
                  (     0          0         -1      )
                  (     1          0         -1      )

 cart.    s(36) = (  0.0000000  0.0000000  1.0000000 )
                  (  0.0000000 -1.0000000  0.0000000 )
                  ( -1.0000000  0.0000000  0.0000000 )


      isym = 37     inv. 180 deg rotation - cart. axis [0,1,1]   

 cryst.   s(37) = (     1         -1          0      )
                  (     0         -1          0      )
                  (     0         -1          1      )

 cart.    s(37) = (  1.0000000  0.0000000  0.0000000 )
                  (  0.0000000  0.0000000 -1.0000000 )
                  (  0.0000000 -1.0000000  0.0000000 )


      isym = 38     inv. 180 deg rotation - cart. axis [0,1,-1]  

 cryst.   s(38) = (     0          0          1      )
                  (     0          1          0      )
                  (     1          0          0      )

 cart.    s(38) = (  1.0000000  0.0000000  0.0000000 )
                  (  0.0000000  0.0000000  1.0000000 )
                  (  0.0000000  1.0000000  0.0000000 )


      isym = 39     inv.  90 deg rotation - cart. axis [-1,0,0]  

 cryst.   s(39) = (     0          0         -1      )
                  (     1          0         -1      )
                  (     0          1         -1      )

 cart.    s(39) = ( -1.0000000  0.0000000  0.0000000 )
                  (  0.0000000  0.0000000 -1.0000000 )
                  (  0.0000000  1.0000000  0.0000000 )


      isym = 40     inv.  90 deg rotation - cart. axis [1,0,0]   

 cryst.   s(40) = (    -1          1          0      )
                  (    -1          0          1      )
                  (    -1          0          0      )

 cart.    s(40) = ( -1.0000000  0.0000000  0.0000000 )
                  (  0.0000000  0.0000000  1.0000000 )
                  (  0.0000000 -1.0000000  0.0000000 )


      isym = 41     inv. 120 deg rotation - cart. axis [-1,-1,-1]

 cryst.   s(41) = (     1          0         -1      )
                  (     1         -1          0      )
                  (     1          0          0      )

 cart.    s(41) = (  0.0000000 -1.0000000  0.0000000 )
                  (  0.0000000  0.0000000 -1.0000000 )
                  ( -1.0000000  0.0000000  0.0000000 )


      isym = 42     inv. 120 deg rotation - cart. axis [-1,1,1]  

 cryst.   s(42) = (     0         -1          0      )
                  (     0          0         -1      )
                  (    -1          0          0      )

 cart.    s(42) = (  0.0000000  1.0000000  0.0000000 )
                  (  0.0000000  0.0000000 -1.0000000 )
                  (  1.0000000  0.0000000  0.0000000 )


      isym = 43     inv. 120 deg rotation - cart. axis [1,1,-1]  

 cryst.   s(43) = (    -1          0          1      )
                  (     0          0          1      )
                  (     0         -1          1      )

 cart.    s(43) = (  0.0000000 -1.0000000  0.0000000 )
                  (  0.0000000  0.0000000  1.0000000 )
                  (  1.0000000  0.0000000  0.0000000 )


      isym = 44     inv. 120 deg rotation - cart. axis [1,-1,1]  

 cryst.   s(44) = (     0          1          0      )
                  (    -1          1          0      )
                  (     0          1         -1      )

 cart.    s(44) = (  0.0000000  1.0000000  0.0000000 )
                  (  0.0000000  0.0000000  1.0000000 )
                  ( -1.0000000  0.0000000  0.0000000 )


      isym = 45     inv. 120 deg rotation - cart. axis [1,1,1]   

 cryst.   s(45) = (     0          0          1      )
                  (     0         -1          1      )
                  (    -1          0          1      )

 cart.    s(45) = (  0.0000000  0.0000000 -1.0000000 )
                  ( -1.0000000  0.0000000  0.0000000 )
                  (  0.0000000 -1.0000000  0.0000000 )


      isym = 46     inv. 120 deg rotation - cart. axis [-1,1,-1] 

 cryst.   s(46) = (     1         -1          0      )
                  (     1          0          0      )
                  (     1          0         -1      )

 cart.    s(46) = (  0.0000000  0.0000000 -1.0000000 )
                  (  1.0000000  0.0000000  0.0000000 )
                  (  0.0000000  1.0000000  0.0000000 )


      isym = 47     inv. 120 deg rotation - cart. axis [1,-1,-1] 

 cryst.   s(47) = (     0          0         -1      )
                  (    -1          0          0      )
                  (     0         -1          0      )

 cart.    s(47) = (  0.0000000  0.0000000  1.0000000 )
                  (  1.0000000  0.0000000  0.0000000 )
                  (  0.0000000 -1.0000000  0.0000000 )


      isym = 48     inv. 120 deg rotation - cart. axis [-1,-1,1] 

 cryst.   s(48) = (    -1          1          0      )
                  (     0          1         -1      )
                  (     0          1          0      )

 cart.    s(48) = (  0.0000000  0.0000000  1.0000000 )
                  ( -1.0000000  0.0000000  0.0000000 )
                  (  0.0000000  1.0000000  0.0000000 )


     point group O_h (m-3m) 
     there are 10 classes
     the character table:

       E     8C3   6C2'  6C4   3C2   i     6S4   8S6   3s_h  6s_d 
A_1g   1.00  1.00  1.00  1.00  1.00  1.00  1.00  1.00  1.00  1.00
A_2g   1.00  1.00 -1.00 -1.00  1.00  1.00 -1.00  1.00  1.00 -1.00
E_g    2.00 -1.00  0.00  0.00  2.00  2.00  0.00 -1.00  2.00  0.00
T_1g   3.00  0.00 -1.00  1.00 -1.00  3.00  1.00  0.00 -1.00 -1.00
T_2g   3.00  0.00  1.00 -1.00 -1.00  3.00 -1.00  0.00 -1.00  1.00
A_1u   1.00  1.00  1.00  1.00  1.00 -1.00 -1.00 -1.00 -1.00 -1.00
A_2u   1.00  1.00 -1.00 -1.00  1.00 -1.00  1.00 -1.00 -1.00  1.00
E_u    2.00 -1.00  0.00  0.00  2.00 -2.00  0.00  1.00 -2.00  0.00
T_1u   3.00  0.00 -1.00  1.00 -1.00 -3.00 -1.00  0.00  1.00  1.00
T_2u   3.00  0.00  1.00 -1.00 -1.00 -3.00  1.00  0.00  1.00 -1.00

     the symmetry operations in each class:
     E        1
     3C2      2    4    3
     6C2'     5    6   14   13   10    9
     6C4      7    8   15   16   12   11
     8C3     17   19   20   18   24   21   22   23
     i       25
     3s_h    26   28   27
     6s_d    29   30   38   37   34   33
     6S4     31   32   39   40   36   35
     8S6     41   43   44   42   48   45   46   47

   Cartesian axes

     site n.     atom                  positions (alat units)
         1           Ni  tau(   1) = (   0.0000000   0.0000000   0.0000000  )

   Crystallographic axes

     site n.     atom                  positions (cryst. coord.)
         1           Ni  tau(   1) = (  0.0000000  0.0000000  0.0000000  )

     number of k points=    44  Marzari-Vanderbilt smearing, width (Ry)=  0.0200
                       cart. coord. in units 2pi/alat
        k(    1) = (  -0.0714286   0.0714286   0.0714286), wk =   0.0116618
        k(    2) = (  -0.2142857   0.2142857  -0.0714286), wk =   0.0349854
        k(    3) = (  -0.3571429   0.3571429  -0.2142857), wk =   0.0349854
        k(    4) = (   0.5000000  -0.5000000   0.6428571), wk =   0.0349854
        k(    5) = (   0.3571429  -0.3571429   0.5000000), wk =   0.0349854
        k(    6) = (   0.2142857  -0.2142857   0.3571429), wk =   0.0349854
        k(    7) = (   0.0714286  -0.0714286   0.2142857), wk =   0.0349854
        k(    8) = (  -0.0714286   0.3571429   0.0714286), wk =   0.0349854
        k(    9) = (  -0.2142857   0.5000000  -0.0714286), wk =   0.0699708
        k(   10) = (   0.6428571  -0.3571429   0.7857143), wk =   0.0699708
        k(   11) = (   0.5000000  -0.2142857   0.6428571), wk =   0.0699708
        k(   12) = (   0.3571429  -0.0714286   0.5000000), wk =   0.0699708
        k(   13) = (   0.2142857   0.0714286   0.3571429), wk =   0.0699708
        k(   14) = (  -0.0714286   0.6428571   0.0714286), wk =   0.0349854
        k(   15) = (   0.7857143  -0.2142857   0.9285714), wk =   0.0699708
        k(   16) = (   0.6428571  -0.0714286   0.7857143), wk =   0.0699708
        k(   17) = (   0.5000000   0.0714286   0.6428571), wk =   0.0699708
        k(   18) = (   0.3571429   0.2142857   0.5000000), wk =   0.0699708
        k(   19) = (  -0.0714286  -1.0714286   0.0714286), wk =   0.0349854
        k(   20) = (  -0.2142857  -0.9285714  -0.0714286), wk =   0.0699708
        k(   21) = (  -0.3571429  -0.7857143  -0.2142857), wk =   0.0699708
        k(   22) = (  -0.5000000  -0.6428571  -0.3571429), wk =   0.0349854
        k(   23) = (  -0.0714286  -0.7857143   0.0714286), wk =   0.0349854
        k(   24) = (  -0.2142857  -0.6428571  -0.0714286), wk =   0.0699708
        k(   25) = (  -0.0714286  -0.5000000   0.0714286), wk =   0.0349854
        k(   26) = (  -0.2142857   0.2142857   0.2142857), wk =   0.0116618
        k(   27) = (  -0.3571429   0.3571429   0.0714286), wk =   0.0349854
        k(   28) = (   0.5000000  -0.5000000   0.9285714), wk =   0.0349854
        k(   29) = (   0.3571429  -0.3571429   0.7857143), wk =   0.0349854
        k(   30) = (   0.2142857  -0.2142857   0.6428571), wk =   0.0349854
        k(   31) = (  -0.2142857   0.5000000   0.2142857), wk =   0.0349854
        k(   32) = (   0.6428571  -0.3571429   1.0714286), wk =   0.0699708
        k(   33) = (   0.5000000  -0.2142857   0.9285714), wk =   0.0699708
        k(   34) = (   0.3571429  -0.0714286   0.7857143), wk =   0.0699708
        k(   35) = (  -0.2142857  -1.2142857   0.2142857), wk =   0.0349854
        k(   36) = (  -0.3571429  -1.0714286   0.0714286), wk =   0.0699708
        k(   37) = (  -0.5000000  -0.9285714  -0.0714286), wk =   0.0349854
        k(   38) = (  -0.2142857  -0.9285714   0.2142857), wk =   0.0349854
        k(   39) = (  -0.3571429   0.3571429   0.3571429), wk =   0.0116618
        k(   40) = (   0.5000000  -0.5000000   1.2142857), wk =   0.0349854
        k(   41) = (   0.3571429  -0.3571429   1.0714286), wk =   0.0349854
        k(   42) = (  -0.3571429  -1.3571429   0.3571429), wk =   0.0349854
        k(   43) = (  -0.5000000  -1.2142857   0.2142857), wk =   0.0349854
        k(   44) = (   0.5000000  -0.5000000  -0.5000000), wk =   0.0058309

                       cryst. coord.
        k(    1) = (   0.0714286   0.0714286   0.0714286), wk =   0.0116618
        k(    2) = (   0.0714286   0.0714286   0.2142857), wk =   0.0349854
        k(    3) = (   0.0714286   0.0714286   0.3571429), wk =   0.0349854
        k(    4) = (   0.0714286   0.0714286  -0.5000000), wk =   0.0349854
        k(    5) = (   0.0714286   0.0714286  -0.3571429), wk =   0.0349854
        k(    6) = (   0.0714286   0.0714286  -0.2142857), wk =   0.0349854
        k(    7) = (   0.0714286   0.0714286  -0.0714286), wk =   0.0349854
        k(    8) = (   0.0714286   0.2142857   0.2142857), wk =   0.0349854
        k(    9) = (   0.0714286   0.2142857   0.3571429), wk =   0.0699708
        k(   10) = (   0.0714286   0.2142857  -0.5000000), wk =   0.0699708
        k(   11) = (   0.0714286   0.2142857  -0.3571429), wk =   0.0699708
        k(   12) = (   0.0714286   0.2142857  -0.2142857), wk =   0.0699708
        k(   13) = (   0.0714286   0.2142857  -0.0714286), wk =   0.0699708
        k(   14) = (   0.0714286   0.3571429   0.3571429), wk =   0.0349854
        k(   15) = (   0.0714286   0.3571429  -0.5000000), wk =   0.0699708
        k(   16) = (   0.0714286   0.3571429  -0.3571429), wk =   0.0699708
        k(   17) = (   0.0714286   0.3571429  -0.2142857), wk =   0.0699708
        k(   18) = (   0.0714286   0.3571429  -0.0714286), wk =   0.0699708
        k(   19) = (   0.0714286  -0.5000000  -0.5000000), wk =   0.0349854
        k(   20) = (   0.0714286  -0.5000000  -0.3571429), wk =   0.0699708
        k(   21) = (   0.0714286  -0.5000000  -0.2142857), wk =   0.0699708
        k(   22) = (   0.0714286  -0.5000000  -0.0714286), wk =   0.0349854
        k(   23) = (   0.0714286  -0.3571429  -0.3571429), wk =   0.0349854
        k(   24) = (   0.0714286  -0.3571429  -0.2142857), wk =   0.0699708
        k(   25) = (   0.0714286  -0.2142857  -0.2142857), wk =   0.0349854
        k(   26) = (   0.2142857   0.2142857   0.2142857), wk =   0.0116618
        k(   27) = (   0.2142857   0.2142857   0.3571429), wk =   0.0349854
        k(   28) = (   0.2142857   0.2142857  -0.5000000), wk =   0.0349854
        k(   29) = (   0.2142857   0.2142857  -0.3571429), wk =   0.0349854
        k(   30) = (   0.2142857   0.2142857  -0.2142857), wk =   0.0349854
        k(   31) = (   0.2142857   0.3571429   0.3571429), wk =   0.0349854
        k(   32) = (   0.2142857   0.3571429  -0.5000000), wk =   0.0699708
        k(   33) = (   0.2142857   0.3571429  -0.3571429), wk =   0.0699708
        k(   34) = (   0.2142857   0.3571429  -0.2142857), wk =   0.0699708
        k(   35) = (   0.2142857  -0.5000000  -0.5000000), wk =   0.0349854
        k(   36) = (   0.2142857  -0.5000000  -0.3571429), wk =   0.0699708
        k(   37) = (   0.2142857  -0.5000000  -0.2142857), wk =   0.0349854
        k(   38) = (   0.2142857  -0.3571429  -0.3571429), wk =   0.0349854
        k(   39) = (   0.3571429   0.3571429   0.3571429), wk =   0.0116618
        k(   40) = (   0.3571429   0.3571429  -0.5000000), wk =   0.0349854
        k(   41) = (   0.3571429   0.3571429  -0.3571429), wk =   0.0349854
        k(   42) = (   0.3571429  -0.5000000  -0.5000000), wk =   0.0349854
        k(   43) = (   0.3571429  -0.5000000  -0.3571429), wk =   0.0349854
        k(   44) = (  -0.5000000  -0.5000000  -0.5000000), wk =   0.0058309

     Dense  grid:     2565 G-vectors     FFT dimensions: (  20,  20,  20)

     Largest allocated arrays     est. size (Mb)     dimensions
        Kohn-Sham Wavefunctions         0.07 Mb     (     332,   13)
        NL pseudopotentials             0.09 Mb     (     332,   18)
        Each V/rho on FFT grid          0.12 Mb     (    8000)
        Each G-vector array             0.02 Mb     (    2565)
        G-vector shells                 0.00 Mb     (      62)
     Largest temporary arrays     est. size (Mb)     dimensions
        Auxiliary wavefunctions         0.26 Mb     (     332,   52)
        Each subspace H/S matrix        0.04 Mb     (      52,   52)
        Each <psi_i|beta_j> matrix      0.00 Mb     (      18,   13)
        Arrays for rho mixing           0.98 Mb     (    8000,    8)

     Check: negative/imaginary core charge=   -0.000044    0.000000

     Initial potential from superposition of free atoms

     starting charge   17.99977, renormalised to   18.00000
     Starting wfc are   10 randomized atomic wfcs +    3 random wfc

     total cpu time spent up to now is        2.3 secs

     per-process dynamical memory:    10.7 Mb

     Self-consistent Calculation

     iteration #  1     ecut=    40.00 Ry     beta=0.70
     Davidson diagonalization with overlap
     ethr =  1.00E-02,  avg # of iterations =  4.5

     Threshold (ethr) on eigenvalues was too large:
     Diagonalizing with lowered threshold

     Davidson diagonalization with overlap
     ethr =  1.98E-04,  avg # of iterations =  1.1

     total cpu time spent up to now is        4.2 secs

     total energy              =    -338.86404777 Ry
     Harris-Foulkes estimate   =    -338.88611035 Ry
     estimated scf accuracy    <       0.03697820 Ry

     iteration #  2     ecut=    40.00 Ry     beta=0.70
     Davidson diagonalization with overlap
     ethr =  2.05E-04,  avg # of iterations =  2.1

     total cpu time spent up to now is        5.2 secs

     total energy              =    -338.85589977 Ry
     Harris-Foulkes estimate   =    -338.89423245 Ry
     estimated scf accuracy    <       0.10046736 Ry

     iteration #  3     ecut=    40.00 Ry     beta=0.70
     Davidson diagonalization with overlap
     ethr =  2.05E-04,  avg # of iterations =  2.0

     total cpu time spent up to now is        6.2 secs

     total energy              =    -338.87566685 Ry
     Harris-Foulkes estimate   =    -338.87686747 Ry
     estimated scf accuracy    <       0.00446469 Ry

     iteration #  4     ecut=    40.00 Ry     beta=0.70
     Davidson diagonalization with overlap
     ethr =  2.48E-05,  avg # of iterations =  1.9

     total cpu time spent up to now is        7.0 secs

     total energy              =    -338.87625473 Ry
     Harris-Foulkes estimate   =    -338.87625154 Ry
     estimated scf accuracy    <       0.00002834 Ry

     iteration #  5     ecut=    40.00 Ry     beta=0.70
     Davidson diagonalization with overlap
     ethr =  1.57E-07,  avg # of iterations =  2.7

     total cpu time spent up to now is        8.0 secs

     total energy              =    -338.87626583 Ry
     Harris-Foulkes estimate   =    -338.87626648 Ry
     estimated scf accuracy    <       0.00000201 Ry

     iteration #  6     ecut=    40.00 Ry     beta=0.70
     Davidson diagonalization with overlap
     ethr =  1.12E-08,  avg # of iterations =  1.5

     total cpu time spent up to now is        8.8 secs

     End of self-consistent calculation

          k =-0.0714 0.0714 0.0714 (   328 PWs)   bands (ev):

   -85.6344 -45.6156 -45.6156 -45.5572   8.8808  15.5355  15.5918  15.5918
    16.6252  16.6252  40.3448  42.9703  44.4656

     occupation numbers 
     1.0000   1.0000   1.0000   1.0000   1.0000   1.0000   1.0000   1.0000
     1.0004   1.0004   0.0000   0.0000   0.0000

          k =-0.2143 0.2143-0.0714 (   314 PWs)   bands (ev):

   -85.6221 -45.4902 -45.4716 -45.4044   9.9163  15.3788  15.8503  15.8680
    16.5648  16.8657  36.2271  39.3294  43.7872

     occupation numbers 
     1.0000   1.0000   1.0000   1.0000   1.0000   1.0000   1.0000   1.0000
     1.0001   1.0152   0.0000   0.0000   0.0000

          k =-0.3571 0.3571-0.2143 (   312 PWs)   bands (ev):

   -85.6062 -45.4881 -45.4531 -45.3755  11.9984  15.2289  15.7400  15.8934
    17.0089  17.3977  29.3532  38.2682  42.1666

     occupation numbers 
     1.0000   1.0000   1.0000   1.0000   1.0000   1.0000   1.0000   1.0000
     1.0544   0.7152   0.0000   0.0000   0.0000

          k = 0.5000-0.5000 0.6429 (   320 PWs)   bands (ev):

   -85.5978 -45.5642 -45.5139 -45.5116  13.2181  15.5010  15.6946  16.3345
    17.3507  18.1954  24.2335  38.2656  40.9283

     occupation numbers 
     1.0000   1.0000   1.0000   1.0000   1.0000   1.0000   1.0000   1.0000
     0.8343   0.0000   0.0000   0.0000   0.0000

          k = 0.3571-0.3571 0.5000 (   317 PWs)   bands (ev):

   -85.5993 -45.6076 -45.4731 -45.4039  13.0138  15.5760  15.7713  15.9245
    17.4125  17.7408  25.5377  39.0705  40.1131

     occupation numbers 
     1.0000   1.0000   1.0000   1.0000   1.0000   1.0000   1.0000   1.0000
     0.6752   0.0518   0.0000   0.0000   0.0000

          k = 0.2143-0.2143 0.3571 (   313 PWs)   bands (ev):

   -85.6116 -45.5052 -45.4658 -45.3795  11.2539  15.1614  15.8191  15.8979
    16.8897  17.1136  31.5618  40.2021  40.3277

     occupation numbers 
     1.0000   1.0000   1.0000   1.0000   1.0000   1.0000   1.0000   1.0000
     1.0197   1.0826   0.0000   0.0000   0.0000

          k = 0.0714-0.0714 0.2143 (   318 PWs)   bands (ev):

   -85.6270 -45.5444 -45.5299 -45.4045   9.4128  15.4200  15.7986  15.8134
    16.5546  16.7554  38.5703  41.4303  41.8417

     occupation numbers 
     1.0000   1.0000   1.0000   1.0000   1.0000   1.0000   1.0000   1.0000
     1.0001   1.0036   0.0000   0.0000   0.0000

          k =-0.0714 0.3571 0.0714 (   312 PWs)   bands (ev):

   -85.6173 -45.5115 -45.3992 -45.3907  10.3990  15.1278  16.0385  16.1709
    16.4045  16.9492  36.5836  39.2141  39.8368

     occupation numbers 
     1.0000   1.0000   1.0000   1.0000   1.0000   1.0000   1.0000   1.0000
     1.0000   1.0349   0.0000   0.0000   0.0000

          k =-0.2143 0.5000-0.0714 (   317 PWs)   bands (ev):

   -85.6071 -45.5673 -45.5009 -45.4559  12.0670  14.7747  15.6932  16.3605
    16.8325  17.3937  32.2258  35.2348  38.6240

     occupation numbers 
     1.0000   1.0000   1.0000   1.0000   1.0000   1.0000   1.0000   1.0000
     1.0103   0.7257   0.0000   0.0000   0.0000

          k = 0.6429-0.3571 0.7857 (   318 PWs)   bands (ev):

   -85.5958 -45.5994 -45.4943 -45.4708  13.6213  14.9018  15.4313  16.2167
    17.3844  19.0815  26.0991  34.8092  36.0039

     occupation numbers 
     1.0000   1.0000   1.0000   1.0000   1.0000   1.0000   1.0000   1.0000
     0.7501   0.0000   0.0000   0.0000   0.0000

          k = 0.5000-0.2143 0.6429 (   311 PWs)   bands (ev):

   -85.5914 -45.4909 -45.4433 -45.3702  13.8351  15.0416  15.5784  16.1404
    17.3778  20.0899  24.6350  33.6050  36.8442

     occupation numbers 
     1.0000   1.0000   1.0000   1.0000   1.0000   1.0000   1.0000   1.0000
     0.7674   0.0000   0.0000   0.0000   0.0000

          k = 0.3571-0.0714 0.5000 (   313 PWs)   bands (ev):

   -85.6017 -45.5349 -45.4871 -45.3636  12.7636  14.9147  15.5066  16.3234
    16.8114  18.0063  30.0480  33.2630  39.5631

     occupation numbers 
     1.0000   1.0000   1.0000   1.0000   1.0000   1.0000   1.0000   1.0000
     1.0079   0.0009   0.0000   0.0000   0.0000

          k = 0.2143 0.0714 0.3571 (   313 PWs)   bands (ev):

   -85.6147 -45.5042 -45.4509 -45.3996  10.8520  15.1117  15.8782  16.0798
    16.5530  17.1143  34.0934  37.1702  42.2464

     occupation numbers 
     1.0000   1.0000   1.0000   1.0000   1.0000   1.0000   1.0000   1.0000
     1.0001   1.0826   0.0000   0.0000   0.0000

          k =-0.0714 0.6429 0.0714 (   317 PWs)   bands (ev):

   -85.6000 -45.6318 -45.5074 -45.4466  12.8198  14.3241  16.1858  16.8928
    17.2855  17.2906  32.9552  34.0089  34.8295

     occupation numbers 
     1.0000   1.0000   1.0000   1.0000   1.0000   1.0000   1.0000   1.0204
     0.9663   0.9577   0.0000   0.0000   0.0000

          k = 0.7857-0.2143 0.9286 (   316 PWs)   bands (ev):

   -85.5906 -45.5555 -45.5353 -45.4429  13.5803  14.1887  16.1358  17.0634
    17.4358  19.5542  29.4357  30.6537  32.6314

     occupation numbers 
     1.0000   1.0000   1.0000   1.0000   1.0000   1.0000   1.0000   1.0723
     0.6110   0.0000   0.0000   0.0000   0.0000

          k = 0.6429-0.0714 0.7857 (   315 PWs)   bands (ev):

   -85.5867 -45.5288 -45.4819 -45.4393  14.1894  14.4427  15.5535  16.7533
    17.4356  23.3240  24.4471  28.6272  33.7682

     occupation numbers 
     1.0000   1.0000   1.0000   1.0000   1.0000   1.0000   1.0000   1.0035
     0.6115   0.0000   0.0000   0.0000   0.0000

          k = 0.5000 0.0714 0.6429 (   314 PWs)   bands (ev):

   -85.5914 -45.5248 -45.4527 -45.4323  14.1414  14.8321  15.1146  16.4513
    17.1347  20.2720  26.6458  30.3610  36.4029

     occupation numbers 
     1.0000   1.0000   1.0000   1.0000   1.0000   1.0000   1.0000   1.0000
     1.0832   0.0000   0.0000   0.0000   0.0000

          k = 0.3571 0.2143 0.5000 (   314 PWs)   bands (ev):

   -85.6006 -45.5688 -45.4466 -45.3840  12.8733  15.2196  15.5911  15.9891
    17.2139  17.8707  27.5354  36.5055  39.7129

     occupation numbers 
     1.0000   1.0000   1.0000   1.0000   1.0000   1.0000   1.0000   1.0000
     1.0532   0.0090   0.0000   0.0000   0.0000

          k =-0.0714-1.0714 0.0714 (   318 PWs)   bands (ev):

   -85.5873 -45.5758 -45.5450 -45.4966  13.3525  13.8707  17.2865  17.3532
    17.6436  20.0864  27.5375  31.1289  32.5776

     occupation numbers 
     1.0000   1.0000   1.0000   1.0000   1.0000   1.0000   0.9647   0.8283
     0.1454   0.0000   0.0000   0.0000   0.0000

          k =-0.2143-0.9286-0.0714 (   317 PWs)   bands (ev):

   -85.5868 -45.5471 -45.5354 -45.4878  13.6160  14.0471  16.4730  17.1700
    17.6397  21.2972  27.6220  29.0203  31.9287

     occupation numbers 
     1.0000   1.0000   1.0000   1.0000   1.0000   1.0000   1.0000   1.0771
     0.1508   0.0000   0.0000   0.0000   0.0000

          k =-0.3571-0.7857-0.2143 (   314 PWs)   bands (ev):

   -85.5895 -45.5287 -45.4672 -45.4327  14.0768  14.5712  15.4685  16.5389
    17.4836  21.1213  25.0548  31.6554  34.3500

     occupation numbers 
     1.0000   1.0000   1.0000   1.0000   1.0000   1.0000   1.0000   1.0001
     0.4798   0.0000   0.0000   0.0000   0.0000

          k =-0.5000-0.6429-0.3571 (   318 PWs)   bands (ev):

   -85.5952 -45.5623 -45.4964 -45.4775  13.4886  15.3203  15.8380  16.0020
    17.4224  19.2689  23.7475  36.7592  38.1781

     occupation numbers 
     1.0000   1.0000   1.0000   1.0000   1.0000   1.0000   1.0000   1.0000
     0.6480   0.0000   0.0000   0.0000   0.0000

          k =-0.0714-0.7857 0.0714 (   322 PWs)   bands (ev):

   -85.5937 -45.6525 -45.5647 -45.5633  13.2767  14.0241  16.8412  17.1507
    17.4585  18.4374  30.1708  31.8748  33.3593

     occupation numbers 
     1.0000   1.0000   1.0000   1.0000   1.0000   1.0000   1.0114   1.0817
     0.5479   0.0000   0.0000   0.0000   0.0000

          k =-0.2143-0.6429-0.0714 (   319 PWs)   bands (ev):

   -85.5990 -45.6392 -45.5333 -45.4579  13.1463  14.4403  15.6682  16.7542
    17.1695  18.0710  30.6601  33.4710  34.7020

     occupation numbers 
     1.0000   1.0000   1.0000   1.0000   1.0000   1.0000   1.0000   1.0036
     1.0772   0.0003   0.0000   0.0000   0.0000

          k =-0.0714-0.5000 0.0714 (   310 PWs)   bands (ev):

   -85.6072 -45.4576 -45.4417 -45.3898  11.6873  14.7236  15.9767  16.5117
    16.7843  17.1716  34.6984  36.8278  37.6173

     occupation numbers 
     1.0000   1.0000   1.0000   1.0000   1.0000   1.0000   1.0000   1.0000
     1.0055   1.0766   0.0000   0.0000   0.0000

          k =-0.2143 0.2143 0.2143 (   311 PWs)   bands (ev):

   -85.6177 -45.4470 -45.4137 -45.4137  10.3918  15.3069  15.8871  15.8871
    16.8168  16.8168  33.7410  41.5676  42.9720

     occupation numbers 
     1.0000   1.0000   1.0000   1.0000   1.0000   1.0000   1.0000   1.0000
     1.0084   1.0084   0.0000   0.0000   0.0000

          k =-0.3571 0.3571 0.0714 (   313 PWs)   bands (ev):

   -85.6088 -45.4785 -45.4717 -45.4126  11.7018  15.0608  15.7271  16.1342
    16.5680  17.5020  31.9042  35.0585  43.3584

     occupation numbers 
     1.0000   1.0000   1.0000   1.0000   1.0000   1.0000   1.0000   1.0000
     1.0001   0.4311   0.0000   0.0000   0.0000

          k = 0.5000-0.5000 0.9286 (   315 PWs)   bands (ev):

   -85.5971 -45.5828 -45.4896 -45.3789  13.5371  15.0113  15.2622  16.2977
    16.8615  18.8494  28.1730  31.6068  40.3520

     occupation numbers 
     1.0000   1.0000   1.0000   1.0000   1.0000   1.0000   1.0000   1.0000
     1.0145   0.0000   0.0000   0.0000   0.0000

          k = 0.3571-0.3571 0.7857 (   315 PWs)   bands (ev):

   -85.5910 -45.5196 -45.4804 -45.4498  13.9842  14.8449  15.5498  16.2473
    17.3917  21.0116  23.9597  32.4529  37.3504

     occupation numbers 
     1.0000   1.0000   1.0000   1.0000   1.0000   1.0000   1.0000   1.0000
     0.7310   0.0000   0.0000   0.0000   0.0000

          k = 0.2143-0.2143 0.6429 (   318 PWs)   bands (ev):

   -85.5978 -45.6347 -45.4931 -45.4614  13.3590  14.6171  15.5522  16.4047
    17.4621  18.3549  28.1609  34.6543  36.1191

     occupation numbers 
     1.0000   1.0000   1.0000   1.0000   1.0000   1.0000   1.0000   1.0000
     0.5380   0.0000   0.0000   0.0000   0.0000

          k =-0.2143 0.5000 0.2143 (   319 PWs)   bands (ev):

   -85.6056 -45.6004 -45.5259 -45.4516  12.3721  14.9099  15.6690  16.0688
    17.2702  17.2819  29.6776  37.9926  38.1597

     occupation numbers 
     1.0000   1.0000   1.0000   1.0000   1.0000   1.0000   1.0000   1.0000
     0.9902   0.9723   0.0000   0.0000   0.0000

          k = 0.6429-0.3571 1.0714 (   317 PWs)   bands (ev):

   -85.5957 -45.5985 -45.5100 -45.4308  13.6822  14.6941  15.2132  16.6085
    17.1240  19.0057  28.5184  31.8295  35.3358

     occupation numbers 
     1.0000   1.0000   1.0000   1.0000   1.0000   1.0000   1.0000   1.0003
     1.0832   0.0000   0.0000   0.0000   0.0000

          k = 0.5000-0.2143 0.9286 (   317 PWs)   bands (ev):

   -85.5886 -45.5532 -45.5043 -45.4681  14.4027  14.6199  15.0472  16.6255
    17.3851  22.2546  25.4951  29.4732  32.5194

     occupation numbers 
     1.0000   1.0000   1.0000   1.0000   1.0000   1.0000   1.0000   1.0004
     0.7484   0.0000   0.0000   0.0000   0.0000

          k = 0.3571-0.0714 0.7857 (   314 PWs)   bands (ev):

   -85.5887 -45.5168 -45.5145 -45.3981  14.0457  14.5098  15.3655  16.8641
    17.4178  20.8321  27.3865  30.5818  31.7127

     occupation numbers 
     1.0000   1.0000   1.0000   1.0000   1.0000   1.0000   1.0000   1.0149
     0.6606   0.0000   0.0000   0.0000   0.0000

          k =-0.2143-1.2143 0.2143 (   313 PWs)   bands (ev):

   -85.5893 -45.5387 -45.4905 -45.3787  13.7922  14.3549  15.8762  16.7669
    17.5355  20.2034  27.0183  30.9937  34.7914

     occupation numbers 
     1.0000   1.0000   1.0000   1.0000   1.0000   1.0000   1.0000   1.0043
     0.3481   0.0000   0.0000   0.0000   0.0000

          k =-0.3571-1.0714 0.0714 (   310 PWs)   bands (ev):

   -85.5840 -45.5122 -45.4616 -45.3074  14.0105  14.4370  15.6717  16.9875
    17.6690  22.9315  26.6519  28.2443  30.5482

     occupation numbers 
     1.0000   1.0000   1.0000   1.0000   1.0000   1.0000   1.0000   1.0471
     0.1137   0.0000   0.0000   0.0000   0.0000

          k =-0.5000-0.9286-0.0714 (   316 PWs)   bands (ev):

   -85.5862 -45.5489 -45.5185 -45.4347  14.1948  14.8913  14.9914  16.6949
    17.6215  24.4232  25.0273  28.5346  29.7487

     occupation numbers 
     1.0000   1.0000   1.0000   1.0000   1.0000   1.0000   1.0000   1.0014
     0.1779   0.0000   0.0000   0.0000   0.0000

          k =-0.2143-0.9286 0.2143 (   313 PWs)   bands (ev):

   -85.5856 -45.4866 -45.4667 -45.4499  13.8362  14.2009  16.1679  16.9926
    17.5690  22.2119  26.2190  28.2068  34.0862

     occupation numbers 
     1.0000   1.0000   1.0000   1.0000   1.0000   1.0000   1.0000   1.0489
     0.2737   0.0000   0.0000   0.0000   0.0000

          k =-0.3571 0.3571 0.3571 (   308 PWs)   bands (ev):

   -85.6010 -45.4246 -45.3698 -45.3698  12.4825  15.6537  15.7642  15.7642
    17.3683  17.3683  27.2478  40.2672  42.2423

     occupation numbers 
     1.0000   1.0000   1.0000   1.0000   1.0000   1.0000   1.0000   1.0000
     0.7914   0.7914   0.0000   0.0000   0.0000

          k = 0.5000-0.5000 1.2143 (   314 PWs)   bands (ev):

   -85.5964 -45.5545 -45.4260 -45.4217  13.3707  15.3872  15.5502  15.9506
    17.1957  18.7063  25.8450  34.8968  40.7634

     occupation numbers 
     1.0000   1.0000   1.0000   1.0000   1.0000   1.0000   1.0000   1.0000
     1.0656   0.0000   0.0000   0.0000   0.0000

          k = 0.3571-0.3571 1.0714 (   317 PWs)   bands (ev):

   -85.5895 -45.5462 -45.4848 -45.4834  14.3060  14.5706  15.3369  16.5278
    17.2145  21.8129  25.0978  29.2701  36.7878

     occupation numbers 
     1.0000   1.0000   1.0000   1.0000   1.0000   1.0000   1.0000   1.0001
     1.0528   0.0000   0.0000   0.0000   0.0000

          k =-0.3571-1.3571 0.3571 (   314 PWs)   bands (ev):

   -85.5940 -45.5403 -45.4777 -45.3859  13.5365  15.2156  15.8186  15.9540
    17.4852  19.2449  24.4100  36.0929  38.4754

     occupation numbers 
     1.0000   1.0000   1.0000   1.0000   1.0000   1.0000   1.0000   1.0000
     0.4755   0.0000   0.0000   0.0000   0.0000

          k =-0.5000-1.2143 0.2143 (   312 PWs)   bands (ev):

   -85.5888 -45.5235 -45.4359 -45.3985  14.2373  14.6753  15.3775  16.4228
    17.4154  21.7246  24.1589  32.3398  33.3965

     occupation numbers 
     1.0000   1.0000   1.0000   1.0000   1.0000   1.0000   1.0000   1.0000
     0.6671   0.0000   0.0000   0.0000   0.0000

          k = 0.5000-0.5000-0.5000 (   332 PWs)   bands (ev):

   -85.6013 -45.7584 -45.6071 -45.6071  13.0846  15.5345  15.5345  17.1914
    17.3701  17.3701  23.5528  39.6509  42.1090

     occupation numbers 
     1.0000   1.0000   1.0000   1.0000   1.0000   1.0000   1.0000   1.0680
     0.7869   0.7869   0.0000   0.0000   0.0000

     the Fermi energy is    17.5140 ev

!    total energy              =    -338.87626612 Ry
     Harris-Foulkes estimate   =    -338.87626612 Ry
     estimated scf accuracy    <          5.1E-09 Ry

     The total energy is the sum of the following terms:

     one-electron contribution =    -186.20550853 Ry
     hartree contribution      =     104.31252844 Ry
     xc contribution           =     -33.90248524 Ry
     ewald contribution        =    -223.08083981 Ry
     smearing contrib. (-TS)   =       0.00003901 Ry

     convergence has been achieved in   6 iterations

     Writing output data file Ni_exc2.save

     init_run     :      1.57s CPU      1.58s WALL (       1 calls)
     electrons    :      6.35s CPU      6.54s WALL (       1 calls)

     Called by init_run:
     wfcinit      :      0.25s CPU      0.25s WALL (       1 calls)
     potinit      :      0.03s CPU      0.03s WALL (       1 calls)

     Called by electrons:
     c_bands      :      5.27s CPU      5.42s WALL (       7 calls)
     sum_band     :      0.86s CPU      0.89s WALL (       7 calls)
     v_of_rho     :      0.10s CPU      0.10s WALL (       7 calls)
     v_h          :      0.00s CPU      0.00s WALL (       7 calls)
     v_xc         :      0.09s CPU      0.10s WALL (       7 calls)
     newd         :      0.18s CPU      0.18s WALL (       7 calls)
     mix_rho      :      0.00s CPU      0.00s WALL (       7 calls)

     Called by c_bands:
     init_us_2    :      0.21s CPU      0.25s WALL (     660 calls)
     cegterg      :      4.93s CPU      5.10s WALL (     308 calls)

     Called by sum_band:
     sum_band:bec :      0.01s CPU      0.01s WALL (     308 calls)
     addusdens    :      0.12s CPU      0.14s WALL (       7 calls)

     Called by *egterg:
     h_psi        :      2.92s CPU      2.94s WALL (    1049 calls)
     s_psi        :      0.22s CPU      0.28s WALL (    1049 calls)
     g_psi        :      0.01s CPU      0.02s WALL (     697 calls)
     cdiaghg      :      0.81s CPU      0.81s WALL (     961 calls)
     cegterg:over :      0.48s CPU      0.51s WALL (     697 calls)
     cegterg:upda :      0.25s CPU      0.28s WALL (     697 calls)
     cegterg:last :      0.15s CPU      0.18s WALL (     308 calls)

     Called by h_psi:
     h_psi:vloc   :      2.26s CPU      2.34s WALL (    1049 calls)
     h_psi:vnl    :      0.63s CPU      0.58s WALL (    1049 calls)
     add_vuspsi   :      0.32s CPU      0.28s WALL (    1049 calls)

     General routines
     calbec       :      0.40s CPU      0.42s WALL (    1357 calls)
     fft          :      0.02s CPU      0.01s WALL (      93 calls)
     fftw         :      2.15s CPU      2.20s WALL (   24234 calls)
     davcio       :      0.00s CPU      0.02s WALL (      44 calls)

     Parallel routines
     fft_scatter  :      0.28s CPU      0.30s WALL (   24327 calls)

     PWSCF        :     8.83s CPU         9.10s WALL


   This run was terminated on:  21:55:38  18Feb2020            

=------------------------------------------------------------------------------=
   JOB DONE.
=------------------------------------------------------------------------------=
