
     Program PWSCF v.5.1 starts on 18Feb2020 at 21:55:38 

     This program is part of the open-source Quantum ESPRESSO suite
     for quantum simulation of materials; please cite
         "P. Giannozzi et al., J. Phys.:Condens. Matter 21 395502 (2009);
          URL http://www.quantum-espresso.org", 
     in publications or presentations arising from this work. More details at
     http://www.quantum-espresso.org/quote

     Parallel version (MPI), running on     1 processors
     Waiting for input...
     Reading input from standard input

     Current dimensions of program PWSCF are:
     Max number of different atomic species (ntypx) = 10
     Max number of k-points (npk) =  40000
     Max angular momentum in pseudopotentials (lmaxx) =  3

     Subspace diagonalization in iterative solution of the eigenvalue problem:
     a serial algorithm will be used


     G-vector sticks info
     --------------------
     sticks:   dense  smooth     PW     G-vecs:    dense   smooth      PW
     Sum         253     253     85                 2565     2565     537



     bravais-lattice index     =            2
     lattice parameter (alat)  =       6.6590  a.u.
     unit-cell volume          =      73.8188 (a.u.)^3
     number of atoms/cell      =            1
     number of atomic types    =            1
     number of electrons       =        18.00
     number of Kohn-Sham states=           13
     kinetic-energy cutoff     =      40.0000  Ry
     charge density cutoff     =     160.0000  Ry
     convergence threshold     =      1.0E-06
     mixing beta               =       0.7000
     number of iterations used =            8  plain     mixing
     Exchange-correlation      = PBESOL ( 1  4 10  8 0)

     celldm(1)=   6.659000  celldm(2)=   0.000000  celldm(3)=   0.000000
     celldm(4)=   0.000000  celldm(5)=   0.000000  celldm(6)=   0.000000

     crystal axes: (cart. coord. in units of alat)
               a(1) = (  -0.500000   0.000000   0.500000 )  
               a(2) = (   0.000000   0.500000   0.500000 )  
               a(3) = (  -0.500000   0.500000   0.000000 )  

     reciprocal axes: (cart. coord. in units 2 pi/alat)
               b(1) = ( -1.000000 -1.000000  1.000000 )  
               b(2) = (  1.000000  1.000000  1.000000 )  
               b(3) = ( -1.000000  1.000000 -1.000000 )  


     PseudoPot. # 1 for Ni read from file:
     ../pseudo/Ni.pbesol-spn-rrkjus_psl.1.0.0.UPF
     MD5 check sum: 6fc0a587bf949a08f2faed986b854013
     Pseudo is Ultrasoft + core correction, Zval = 18.0
     Generated using "atomic" code by A. Dal Corso  v.6.3
     Using radial grid of 1195 points,  6 beta functions with: 
                l(1) =   0
                l(2) =   0
                l(3) =   1
                l(4) =   1
                l(5) =   2
                l(6) =   2
     Q(r) pseudized with 0 coefficients 


     atomic species   valence    mass     pseudopotential
        Ni            18.00    58.69000     Ni( 1.00)

     48 Sym. Ops., with inversion, found


                                    s                        frac. trans.

      isym =  1     identity                                     

 cryst.   s( 1) = (     1          0          0      )
                  (     0          1          0      )
                  (     0          0          1      )

 cart.    s( 1) = (  1.0000000  0.0000000  0.0000000 )
                  (  0.0000000  1.0000000  0.0000000 )
                  (  0.0000000  0.0000000  1.0000000 )


      isym =  2     180 deg rotation - cart. axis [0,0,1]        

 cryst.   s( 2) = (     0          1         -1      )
                  (     1          0         -1      )
                  (     0          0         -1      )

 cart.    s( 2) = ( -1.0000000  0.0000000  0.0000000 )
                  (  0.0000000 -1.0000000  0.0000000 )
                  (  0.0000000  0.0000000  1.0000000 )


      isym =  3     180 deg rotation - cart. axis [0,1,0]        

 cryst.   s( 3) = (    -1          0          0      )
                  (    -1          0          1      )
                  (    -1          1          0      )

 cart.    s( 3) = ( -1.0000000  0.0000000  0.0000000 )
                  (  0.0000000  1.0000000  0.0000000 )
                  (  0.0000000  0.0000000 -1.0000000 )


      isym =  4     180 deg rotation - cart. axis [1,0,0]        

 cryst.   s( 4) = (     0         -1          1      )
                  (     0         -1          0      )
                  (     1         -1          0      )

 cart.    s( 4) = (  1.0000000  0.0000000  0.0000000 )
                  (  0.0000000 -1.0000000  0.0000000 )
                  (  0.0000000  0.0000000 -1.0000000 )


      isym =  5     180 deg rotation - cart. axis [1,1,0]        

 cryst.   s( 5) = (     0         -1          0      )
                  (    -1          0          0      )
                  (     0          0         -1      )

 cart.    s( 5) = (  0.0000000  1.0000000  0.0000000 )
                  (  1.0000000  0.0000000  0.0000000 )
                  (  0.0000000  0.0000000 -1.0000000 )


      isym =  6     180 deg rotation - cart. axis [1,-1,0]       

 cryst.   s( 6) = (    -1          0          1      )
                  (     0         -1          1      )
                  (     0          0          1      )

 cart.    s( 6) = (  0.0000000 -1.0000000  0.0000000 )
                  ( -1.0000000  0.0000000  0.0000000 )
                  (  0.0000000  0.0000000 -1.0000000 )


      isym =  7      90 deg rotation - cart. axis [0,0,-1]       

 cryst.   s( 7) = (     0          1          0      )
                  (     0          1         -1      )
                  (    -1          1          0      )

 cart.    s( 7) = (  0.0000000  1.0000000  0.0000000 )
                  ( -1.0000000  0.0000000  0.0000000 )
                  (  0.0000000  0.0000000  1.0000000 )


      isym =  8      90 deg rotation - cart. axis [0,0,1]        

 cryst.   s( 8) = (     1          0         -1      )
                  (     1          0          0      )
                  (     1         -1          0      )

 cart.    s( 8) = (  0.0000000 -1.0000000  0.0000000 )
                  (  1.0000000  0.0000000  0.0000000 )
                  (  0.0000000  0.0000000  1.0000000 )


      isym =  9     180 deg rotation - cart. axis [1,0,1]        

 cryst.   s( 9) = (    -1          0          0      )
                  (     0          0         -1      )
                  (     0         -1          0      )

 cart.    s( 9) = (  0.0000000  0.0000000  1.0000000 )
                  (  0.0000000 -1.0000000  0.0000000 )
                  (  1.0000000  0.0000000  0.0000000 )


      isym = 10     180 deg rotation - cart. axis [-1,0,1]       

 cryst.   s(10) = (     1          0          0      )
                  (     1         -1          0      )
                  (     1          0         -1      )

 cart.    s(10) = (  0.0000000  0.0000000 -1.0000000 )
                  (  0.0000000 -1.0000000  0.0000000 )
                  ( -1.0000000  0.0000000  0.0000000 )


      isym = 11      90 deg rotation - cart. axis [0,1,0]        

 cryst.   s(11) = (     0          1         -1      )
                  (    -1          1          0      )
                  (     0          1          0      )

 cart.    s(11) = (  0.0000000  0.0000000  1.0000000 )
                  (  0.0000000  1.0000000  0.0000000 )
                  ( -1.0000000  0.0000000  0.0000000 )


      isym = 12      90 deg rotation - cart. axis [0,-1,0]       

 cryst.   s(12) = (     0         -1          1      )
                  (     0          0          1      )
                  (    -1          0          1      )

 cart.    s(12) = (  0.0000000  0.0000000 -1.0000000 )
                  (  0.0000000  1.0000000  0.0000000 )
                  (  1.0000000  0.0000000  0.0000000 )


      isym = 13     180 deg rotation - cart. axis [0,1,1]        

 cryst.   s(13) = (    -1          1          0      )
                  (     0          1          0      )
                  (     0          1         -1      )

 cart.    s(13) = ( -1.0000000  0.0000000  0.0000000 )
                  (  0.0000000  0.0000000  1.0000000 )
                  (  0.0000000  1.0000000  0.0000000 )


      isym = 14     180 deg rotation - cart. axis [0,1,-1]       

 cryst.   s(14) = (     0          0         -1      )
                  (     0         -1          0      )
                  (    -1          0          0      )

 cart.    s(14) = ( -1.0000000  0.0000000  0.0000000 )
                  (  0.0000000  0.0000000 -1.0000000 )
                  (  0.0000000 -1.0000000  0.0000000 )


      isym = 15      90 deg rotation - cart. axis [-1,0,0]       

 cryst.   s(15) = (     0          0          1      )
                  (    -1          0          1      )
                  (     0         -1          1      )

 cart.    s(15) = (  1.0000000  0.0000000  0.0000000 )
                  (  0.0000000  0.0000000  1.0000000 )
                  (  0.0000000 -1.0000000  0.0000000 )


      isym = 16      90 deg rotation - cart. axis [1,0,0]        

 cryst.   s(16) = (     1         -1          0      )
                  (     1          0         -1      )
                  (     1          0          0      )

 cart.    s(16) = (  1.0000000  0.0000000  0.0000000 )
                  (  0.0000000  0.0000000 -1.0000000 )
                  (  0.0000000  1.0000000  0.0000000 )


      isym = 17     120 deg rotation - cart. axis [-1,-1,-1]     

 cryst.   s(17) = (    -1          0          1      )
                  (    -1          1          0      )
                  (    -1          0          0      )

 cart.    s(17) = (  0.0000000  1.0000000  0.0000000 )
                  (  0.0000000  0.0000000  1.0000000 )
                  (  1.0000000  0.0000000  0.0000000 )


      isym = 18     120 deg rotation - cart. axis [-1,1,1]       

 cryst.   s(18) = (     0          1          0      )
                  (     0          0          1      )
                  (     1          0          0      )

 cart.    s(18) = (  0.0000000 -1.0000000  0.0000000 )
                  (  0.0000000  0.0000000  1.0000000 )
                  ( -1.0000000  0.0000000  0.0000000 )


      isym = 19     120 deg rotation - cart. axis [1,1,-1]       

 cryst.   s(19) = (     1          0         -1      )
                  (     0          0         -1      )
                  (     0          1         -1      )

 cart.    s(19) = (  0.0000000  1.0000000  0.0000000 )
                  (  0.0000000  0.0000000 -1.0000000 )
                  ( -1.0000000  0.0000000  0.0000000 )


      isym = 20     120 deg rotation - cart. axis [1,-1,1]       

 cryst.   s(20) = (     0         -1          0      )
                  (     1         -1          0      )
                  (     0         -1          1      )

 cart.    s(20) = (  0.0000000 -1.0000000  0.0000000 )
                  (  0.0000000  0.0000000 -1.0000000 )
                  (  1.0000000  0.0000000  0.0000000 )


      isym = 21     120 deg rotation - cart. axis [1,1,1]        

 cryst.   s(21) = (     0          0         -1      )
                  (     0          1         -1      )
                  (     1          0         -1      )

 cart.    s(21) = (  0.0000000  0.0000000  1.0000000 )
                  (  1.0000000  0.0000000  0.0000000 )
                  (  0.0000000  1.0000000  0.0000000 )


      isym = 22     120 deg rotation - cart. axis [-1,1,-1]      

 cryst.   s(22) = (    -1          1          0      )
                  (    -1          0          0      )
                  (    -1          0          1      )

 cart.    s(22) = (  0.0000000  0.0000000  1.0000000 )
                  ( -1.0000000  0.0000000  0.0000000 )
                  (  0.0000000 -1.0000000  0.0000000 )


      isym = 23     120 deg rotation - cart. axis [1,-1,-1]      

 cryst.   s(23) = (     0          0          1      )
                  (     1          0          0      )
                  (     0          1          0      )

 cart.    s(23) = (  0.0000000  0.0000000 -1.0000000 )
                  ( -1.0000000  0.0000000  0.0000000 )
                  (  0.0000000  1.0000000  0.0000000 )


      isym = 24     120 deg rotation - cart. axis [-1,-1,1]      

 cryst.   s(24) = (     1         -1          0      )
                  (     0         -1          1      )
                  (     0         -1          0      )

 cart.    s(24) = (  0.0000000  0.0000000 -1.0000000 )
                  (  1.0000000  0.0000000  0.0000000 )
                  (  0.0000000 -1.0000000  0.0000000 )


      isym = 25     inversion                                    

 cryst.   s(25) = (    -1          0          0      )
                  (     0         -1          0      )
                  (     0          0         -1      )

 cart.    s(25) = ( -1.0000000  0.0000000  0.0000000 )
                  (  0.0000000 -1.0000000  0.0000000 )
                  (  0.0000000  0.0000000 -1.0000000 )


      isym = 26     inv. 180 deg rotation - cart. axis [0,0,1]   

 cryst.   s(26) = (     0         -1          1      )
                  (    -1          0          1      )
                  (     0          0          1      )

 cart.    s(26) = (  1.0000000  0.0000000  0.0000000 )
                  (  0.0000000  1.0000000  0.0000000 )
                  (  0.0000000  0.0000000 -1.0000000 )


      isym = 27     inv. 180 deg rotation - cart. axis [0,1,0]   

 cryst.   s(27) = (     1          0          0      )
                  (     1          0         -1      )
                  (     1         -1          0      )

 cart.    s(27) = (  1.0000000  0.0000000  0.0000000 )
                  (  0.0000000 -1.0000000  0.0000000 )
                  (  0.0000000  0.0000000  1.0000000 )


      isym = 28     inv. 180 deg rotation - cart. axis [1,0,0]   

 cryst.   s(28) = (     0          1         -1      )
                  (     0          1          0      )
                  (    -1          1          0      )

 cart.    s(28) = ( -1.0000000  0.0000000  0.0000000 )
                  (  0.0000000  1.0000000  0.0000000 )
                  (  0.0000000  0.0000000  1.0000000 )


      isym = 29     inv. 180 deg rotation - cart. axis [1,1,0]   

 cryst.   s(29) = (     0          1          0      )
                  (     1          0          0      )
                  (     0          0          1      )

 cart.    s(29) = (  0.0000000 -1.0000000  0.0000000 )
                  ( -1.0000000  0.0000000  0.0000000 )
                  (  0.0000000  0.0000000  1.0000000 )


      isym = 30     inv. 180 deg rotation - cart. axis [1,-1,0]  

 cryst.   s(30) = (     1          0         -1      )
                  (     0          1         -1      )
                  (     0          0         -1      )

 cart.    s(30) = (  0.0000000  1.0000000  0.0000000 )
                  (  1.0000000  0.0000000  0.0000000 )
                  (  0.0000000  0.0000000  1.0000000 )


      isym = 31     inv.  90 deg rotation - cart. axis [0,0,-1]  

 cryst.   s(31) = (     0         -1          0      )
                  (     0         -1          1      )
                  (     1         -1          0      )

 cart.    s(31) = (  0.0000000 -1.0000000  0.0000000 )
                  (  1.0000000  0.0000000  0.0000000 )
                  (  0.0000000  0.0000000 -1.0000000 )


      isym = 32     inv.  90 deg rotation - cart. axis [0,0,1]   

 cryst.   s(32) = (    -1          0          1      )
                  (    -1          0          0      )
                  (    -1          1          0      )

 cart.    s(32) = (  0.0000000  1.0000000  0.0000000 )
                  ( -1.0000000  0.0000000  0.0000000 )
                  (  0.0000000  0.0000000 -1.0000000 )


      isym = 33     inv. 180 deg rotation - cart. axis [1,0,1]   

 cryst.   s(33) = (     1          0          0      )
                  (     0          0          1      )
                  (     0          1          0      )

 cart.    s(33) = (  0.0000000  0.0000000 -1.0000000 )
                  (  0.0000000  1.0000000  0.0000000 )
                  ( -1.0000000  0.0000000  0.0000000 )


      isym = 34     inv. 180 deg rotation - cart. axis [-1,0,1]  

 cryst.   s(34) = (    -1          0          0      )
                  (    -1          1          0      )
                  (    -1          0          1      )

 cart.    s(34) = (  0.0000000  0.0000000  1.0000000 )
                  (  0.0000000  1.0000000  0.0000000 )
                  (  1.0000000  0.0000000  0.0000000 )


      isym = 35     inv.  90 deg rotation - cart. axis [0,1,0]   

 cryst.   s(35) = (     0         -1          1      )
                  (     1         -1          0      )
                  (     0         -1          0      )

 cart.    s(35) = (  0.0000000  0.0000000 -1.0000000 )
                  (  0.0000000 -1.0000000  0.0000000 )
                  (  1.0000000  0.0000000  0.0000000 )


      isym = 36     inv.  90 deg rotation - cart. axis [0,-1,0]  

 cryst.   s(36) = (     0          1         -1      )
                  (     0          0         -1      )
                  (     1          0         -1      )

 cart.    s(36) = (  0.0000000  0.0000000  1.0000000 )
                  (  0.0000000 -1.0000000  0.0000000 )
                  ( -1.0000000  0.0000000  0.0000000 )


      isym = 37     inv. 180 deg rotation - cart. axis [0,1,1]   

 cryst.   s(37) = (     1         -1          0      )
                  (     0         -1          0      )
                  (     0         -1          1      )

 cart.    s(37) = (  1.0000000  0.0000000  0.0000000 )
                  (  0.0000000  0.0000000 -1.0000000 )
                  (  0.0000000 -1.0000000  0.0000000 )


      isym = 38     inv. 180 deg rotation - cart. axis [0,1,-1]  

 cryst.   s(38) = (     0          0          1      )
                  (     0          1          0      )
                  (     1          0          0      )

 cart.    s(38) = (  1.0000000  0.0000000  0.0000000 )
                  (  0.0000000  0.0000000  1.0000000 )
                  (  0.0000000  1.0000000  0.0000000 )


      isym = 39     inv.  90 deg rotation - cart. axis [-1,0,0]  

 cryst.   s(39) = (     0          0         -1      )
                  (     1          0         -1      )
                  (     0          1         -1      )

 cart.    s(39) = ( -1.0000000  0.0000000  0.0000000 )
                  (  0.0000000  0.0000000 -1.0000000 )
                  (  0.0000000  1.0000000  0.0000000 )


      isym = 40     inv.  90 deg rotation - cart. axis [1,0,0]   

 cryst.   s(40) = (    -1          1          0      )
                  (    -1          0          1      )
                  (    -1          0          0      )

 cart.    s(40) = ( -1.0000000  0.0000000  0.0000000 )
                  (  0.0000000  0.0000000  1.0000000 )
                  (  0.0000000 -1.0000000  0.0000000 )


      isym = 41     inv. 120 deg rotation - cart. axis [-1,-1,-1]

 cryst.   s(41) = (     1          0         -1      )
                  (     1         -1          0      )
                  (     1          0          0      )

 cart.    s(41) = (  0.0000000 -1.0000000  0.0000000 )
                  (  0.0000000  0.0000000 -1.0000000 )
                  ( -1.0000000  0.0000000  0.0000000 )


      isym = 42     inv. 120 deg rotation - cart. axis [-1,1,1]  

 cryst.   s(42) = (     0         -1          0      )
                  (     0          0         -1      )
                  (    -1          0          0      )

 cart.    s(42) = (  0.0000000  1.0000000  0.0000000 )
                  (  0.0000000  0.0000000 -1.0000000 )
                  (  1.0000000  0.0000000  0.0000000 )


      isym = 43     inv. 120 deg rotation - cart. axis [1,1,-1]  

 cryst.   s(43) = (    -1          0          1      )
                  (     0          0          1      )
                  (     0         -1          1      )

 cart.    s(43) = (  0.0000000 -1.0000000  0.0000000 )
                  (  0.0000000  0.0000000  1.0000000 )
                  (  1.0000000  0.0000000  0.0000000 )


      isym = 44     inv. 120 deg rotation - cart. axis [1,-1,1]  

 cryst.   s(44) = (     0          1          0      )
                  (    -1          1          0      )
                  (     0          1         -1      )

 cart.    s(44) = (  0.0000000  1.0000000  0.0000000 )
                  (  0.0000000  0.0000000  1.0000000 )
                  ( -1.0000000  0.0000000  0.0000000 )


      isym = 45     inv. 120 deg rotation - cart. axis [1,1,1]   

 cryst.   s(45) = (     0          0          1      )
                  (     0         -1          1      )
                  (    -1          0          1      )

 cart.    s(45) = (  0.0000000  0.0000000 -1.0000000 )
                  ( -1.0000000  0.0000000  0.0000000 )
                  (  0.0000000 -1.0000000  0.0000000 )


      isym = 46     inv. 120 deg rotation - cart. axis [-1,1,-1] 

 cryst.   s(46) = (     1         -1          0      )
                  (     1          0          0      )
                  (     1          0         -1      )

 cart.    s(46) = (  0.0000000  0.0000000 -1.0000000 )
                  (  1.0000000  0.0000000  0.0000000 )
                  (  0.0000000  1.0000000  0.0000000 )


      isym = 47     inv. 120 deg rotation - cart. axis [1,-1,-1] 

 cryst.   s(47) = (     0          0         -1      )
                  (    -1          0          0      )
                  (     0         -1          0      )

 cart.    s(47) = (  0.0000000  0.0000000  1.0000000 )
                  (  1.0000000  0.0000000  0.0000000 )
                  (  0.0000000 -1.0000000  0.0000000 )


      isym = 48     inv. 120 deg rotation - cart. axis [-1,-1,1] 

 cryst.   s(48) = (    -1          1          0      )
                  (     0          1         -1      )
                  (     0          1          0      )

 cart.    s(48) = (  0.0000000  0.0000000  1.0000000 )
                  ( -1.0000000  0.0000000  0.0000000 )
                  (  0.0000000  1.0000000  0.0000000 )


     point group O_h (m-3m) 
     there are 10 classes
     the character table:

       E     8C3   6C2'  6C4   3C2   i     6S4   8S6   3s_h  6s_d 
A_1g   1.00  1.00  1.00  1.00  1.00  1.00  1.00  1.00  1.00  1.00
A_2g   1.00  1.00 -1.00 -1.00  1.00  1.00 -1.00  1.00  1.00 -1.00
E_g    2.00 -1.00  0.00  0.00  2.00  2.00  0.00 -1.00  2.00  0.00
T_1g   3.00  0.00 -1.00  1.00 -1.00  3.00  1.00  0.00 -1.00 -1.00
T_2g   3.00  0.00  1.00 -1.00 -1.00  3.00 -1.00  0.00 -1.00  1.00
A_1u   1.00  1.00  1.00  1.00  1.00 -1.00 -1.00 -1.00 -1.00 -1.00
A_2u   1.00  1.00 -1.00 -1.00  1.00 -1.00  1.00 -1.00 -1.00  1.00
E_u    2.00 -1.00  0.00  0.00  2.00 -2.00  0.00  1.00 -2.00  0.00
T_1u   3.00  0.00 -1.00  1.00 -1.00 -3.00 -1.00  0.00  1.00  1.00
T_2u   3.00  0.00  1.00 -1.00 -1.00 -3.00  1.00  0.00  1.00 -1.00

     the symmetry operations in each class:
     E        1
     3C2      2    4    3
     6C2'     5    6   14   13   10    9
     6C4      7    8   15   16   12   11
     8C3     17   19   20   18   24   21   22   23
     i       25
     3s_h    26   28   27
     6s_d    29   30   38   37   34   33
     6S4     31   32   39   40   36   35
     8S6     41   43   44   42   48   45   46   47

   Cartesian axes

     site n.     atom                  positions (alat units)
         1           Ni  tau(   1) = (   0.0000000   0.0000000   0.0000000  )

   Crystallographic axes

     site n.     atom                  positions (cryst. coord.)
         1           Ni  tau(   1) = (  0.0000000  0.0000000  0.0000000  )

     number of k points=    60  Marzari-Vanderbilt smearing, width (Ry)=  0.0200
                       cart. coord. in units 2pi/alat
        k(    1) = (  -0.0625000   0.0625000   0.0625000), wk =   0.0078125
        k(    2) = (  -0.1875000   0.1875000  -0.0625000), wk =   0.0234375
        k(    3) = (  -0.3125000   0.3125000  -0.1875000), wk =   0.0234375
        k(    4) = (  -0.4375000   0.4375000  -0.3125000), wk =   0.0234375
        k(    5) = (   0.4375000  -0.4375000   0.5625000), wk =   0.0234375
        k(    6) = (   0.3125000  -0.3125000   0.4375000), wk =   0.0234375
        k(    7) = (   0.1875000  -0.1875000   0.3125000), wk =   0.0234375
        k(    8) = (   0.0625000  -0.0625000   0.1875000), wk =   0.0234375
        k(    9) = (  -0.0625000   0.3125000   0.0625000), wk =   0.0234375
        k(   10) = (  -0.1875000   0.4375000  -0.0625000), wk =   0.0468750
        k(   11) = (  -0.3125000   0.5625000  -0.1875000), wk =   0.0468750
        k(   12) = (   0.5625000  -0.3125000   0.6875000), wk =   0.0468750
        k(   13) = (   0.4375000  -0.1875000   0.5625000), wk =   0.0468750
        k(   14) = (   0.3125000  -0.0625000   0.4375000), wk =   0.0468750
        k(   15) = (   0.1875000   0.0625000   0.3125000), wk =   0.0468750
        k(   16) = (  -0.0625000   0.5625000   0.0625000), wk =   0.0234375
        k(   17) = (  -0.1875000   0.6875000  -0.0625000), wk =   0.0468750
        k(   18) = (   0.6875000  -0.1875000   0.8125000), wk =   0.0468750
        k(   19) = (   0.5625000  -0.0625000   0.6875000), wk =   0.0468750
        k(   20) = (   0.4375000   0.0625000   0.5625000), wk =   0.0468750
        k(   21) = (   0.3125000   0.1875000   0.4375000), wk =   0.0468750
        k(   22) = (  -0.0625000   0.8125000   0.0625000), wk =   0.0234375
        k(   23) = (   0.8125000  -0.0625000   0.9375000), wk =   0.0468750
        k(   24) = (   0.6875000   0.0625000   0.8125000), wk =   0.0468750
        k(   25) = (   0.5625000   0.1875000   0.6875000), wk =   0.0468750
        k(   26) = (   0.4375000   0.3125000   0.5625000), wk =   0.0468750
        k(   27) = (  -0.0625000  -0.9375000   0.0625000), wk =   0.0234375
        k(   28) = (  -0.1875000  -0.8125000  -0.0625000), wk =   0.0468750
        k(   29) = (  -0.3125000  -0.6875000  -0.1875000), wk =   0.0468750
        k(   30) = (  -0.0625000  -0.6875000   0.0625000), wk =   0.0234375
        k(   31) = (  -0.1875000  -0.5625000  -0.0625000), wk =   0.0468750
        k(   32) = (  -0.0625000  -0.4375000   0.0625000), wk =   0.0234375
        k(   33) = (  -0.1875000   0.1875000   0.1875000), wk =   0.0078125
        k(   34) = (  -0.3125000   0.3125000   0.0625000), wk =   0.0234375
        k(   35) = (  -0.4375000   0.4375000  -0.0625000), wk =   0.0234375
        k(   36) = (   0.4375000  -0.4375000   0.8125000), wk =   0.0234375
        k(   37) = (   0.3125000  -0.3125000   0.6875000), wk =   0.0234375
        k(   38) = (   0.1875000  -0.1875000   0.5625000), wk =   0.0234375
        k(   39) = (  -0.1875000   0.4375000   0.1875000), wk =   0.0234375
        k(   40) = (  -0.3125000   0.5625000   0.0625000), wk =   0.0468750
        k(   41) = (   0.5625000  -0.3125000   0.9375000), wk =   0.0468750
        k(   42) = (   0.4375000  -0.1875000   0.8125000), wk =   0.0468750
        k(   43) = (   0.3125000  -0.0625000   0.6875000), wk =   0.0468750
        k(   44) = (  -0.1875000   0.6875000   0.1875000), wk =   0.0234375
        k(   45) = (   0.6875000  -0.1875000   1.0625000), wk =   0.0468750
        k(   46) = (   0.5625000  -0.0625000   0.9375000), wk =   0.0468750
        k(   47) = (   0.4375000   0.0625000   0.8125000), wk =   0.0468750
        k(   48) = (  -0.1875000  -1.0625000   0.1875000), wk =   0.0234375
        k(   49) = (  -0.3125000  -0.9375000   0.0625000), wk =   0.0468750
        k(   50) = (  -0.1875000  -0.8125000   0.1875000), wk =   0.0234375
        k(   51) = (  -0.3125000   0.3125000   0.3125000), wk =   0.0078125
        k(   52) = (  -0.4375000   0.4375000   0.1875000), wk =   0.0234375
        k(   53) = (   0.4375000  -0.4375000   1.0625000), wk =   0.0234375
        k(   54) = (   0.3125000  -0.3125000   0.9375000), wk =   0.0234375
        k(   55) = (  -0.3125000   0.5625000   0.3125000), wk =   0.0234375
        k(   56) = (   0.5625000  -0.3125000   1.1875000), wk =   0.0468750
        k(   57) = (   0.4375000  -0.1875000   1.0625000), wk =   0.0468750
        k(   58) = (  -0.3125000  -1.1875000   0.3125000), wk =   0.0234375
        k(   59) = (  -0.4375000   0.4375000   0.4375000), wk =   0.0078125
        k(   60) = (   0.4375000  -0.4375000   1.3125000), wk =   0.0234375

                       cryst. coord.
        k(    1) = (   0.0625000   0.0625000   0.0625000), wk =   0.0078125
        k(    2) = (   0.0625000   0.0625000   0.1875000), wk =   0.0234375
        k(    3) = (   0.0625000   0.0625000   0.3125000), wk =   0.0234375
        k(    4) = (   0.0625000   0.0625000   0.4375000), wk =   0.0234375
        k(    5) = (   0.0625000   0.0625000  -0.4375000), wk =   0.0234375
        k(    6) = (   0.0625000   0.0625000  -0.3125000), wk =   0.0234375
        k(    7) = (   0.0625000   0.0625000  -0.1875000), wk =   0.0234375
        k(    8) = (   0.0625000   0.0625000  -0.0625000), wk =   0.0234375
        k(    9) = (   0.0625000   0.1875000   0.1875000), wk =   0.0234375
        k(   10) = (   0.0625000   0.1875000   0.3125000), wk =   0.0468750
        k(   11) = (   0.0625000   0.1875000   0.4375000), wk =   0.0468750
        k(   12) = (   0.0625000   0.1875000  -0.4375000), wk =   0.0468750
        k(   13) = (   0.0625000   0.1875000  -0.3125000), wk =   0.0468750
        k(   14) = (   0.0625000   0.1875000  -0.1875000), wk =   0.0468750
        k(   15) = (   0.0625000   0.1875000  -0.0625000), wk =   0.0468750
        k(   16) = (   0.0625000   0.3125000   0.3125000), wk =   0.0234375
        k(   17) = (   0.0625000   0.3125000   0.4375000), wk =   0.0468750
        k(   18) = (   0.0625000   0.3125000  -0.4375000), wk =   0.0468750
        k(   19) = (   0.0625000   0.3125000  -0.3125000), wk =   0.0468750
        k(   20) = (   0.0625000   0.3125000  -0.1875000), wk =   0.0468750
        k(   21) = (   0.0625000   0.3125000  -0.0625000), wk =   0.0468750
        k(   22) = (   0.0625000   0.4375000   0.4375000), wk =   0.0234375
        k(   23) = (   0.0625000   0.4375000  -0.4375000), wk =   0.0468750
        k(   24) = (   0.0625000   0.4375000  -0.3125000), wk =   0.0468750
        k(   25) = (   0.0625000   0.4375000  -0.1875000), wk =   0.0468750
        k(   26) = (   0.0625000   0.4375000  -0.0625000), wk =   0.0468750
        k(   27) = (   0.0625000  -0.4375000  -0.4375000), wk =   0.0234375
        k(   28) = (   0.0625000  -0.4375000  -0.3125000), wk =   0.0468750
        k(   29) = (   0.0625000  -0.4375000  -0.1875000), wk =   0.0468750
        k(   30) = (   0.0625000  -0.3125000  -0.3125000), wk =   0.0234375
        k(   31) = (   0.0625000  -0.3125000  -0.1875000), wk =   0.0468750
        k(   32) = (   0.0625000  -0.1875000  -0.1875000), wk =   0.0234375
        k(   33) = (   0.1875000   0.1875000   0.1875000), wk =   0.0078125
        k(   34) = (   0.1875000   0.1875000   0.3125000), wk =   0.0234375
        k(   35) = (   0.1875000   0.1875000   0.4375000), wk =   0.0234375
        k(   36) = (   0.1875000   0.1875000  -0.4375000), wk =   0.0234375
        k(   37) = (   0.1875000   0.1875000  -0.3125000), wk =   0.0234375
        k(   38) = (   0.1875000   0.1875000  -0.1875000), wk =   0.0234375
        k(   39) = (   0.1875000   0.3125000   0.3125000), wk =   0.0234375
        k(   40) = (   0.1875000   0.3125000   0.4375000), wk =   0.0468750
        k(   41) = (   0.1875000   0.3125000  -0.4375000), wk =   0.0468750
        k(   42) = (   0.1875000   0.3125000  -0.3125000), wk =   0.0468750
        k(   43) = (   0.1875000   0.3125000  -0.1875000), wk =   0.0468750
        k(   44) = (   0.1875000   0.4375000   0.4375000), wk =   0.0234375
        k(   45) = (   0.1875000   0.4375000  -0.4375000), wk =   0.0468750
        k(   46) = (   0.1875000   0.4375000  -0.3125000), wk =   0.0468750
        k(   47) = (   0.1875000   0.4375000  -0.1875000), wk =   0.0468750
        k(   48) = (   0.1875000  -0.4375000  -0.4375000), wk =   0.0234375
        k(   49) = (   0.1875000  -0.4375000  -0.3125000), wk =   0.0468750
        k(   50) = (   0.1875000  -0.3125000  -0.3125000), wk =   0.0234375
        k(   51) = (   0.3125000   0.3125000   0.3125000), wk =   0.0078125
        k(   52) = (   0.3125000   0.3125000   0.4375000), wk =   0.0234375
        k(   53) = (   0.3125000   0.3125000  -0.4375000), wk =   0.0234375
        k(   54) = (   0.3125000   0.3125000  -0.3125000), wk =   0.0234375
        k(   55) = (   0.3125000   0.4375000   0.4375000), wk =   0.0234375
        k(   56) = (   0.3125000   0.4375000  -0.4375000), wk =   0.0468750
        k(   57) = (   0.3125000   0.4375000  -0.3125000), wk =   0.0468750
        k(   58) = (   0.3125000  -0.4375000  -0.4375000), wk =   0.0234375
        k(   59) = (   0.4375000   0.4375000   0.4375000), wk =   0.0078125
        k(   60) = (   0.4375000   0.4375000  -0.4375000), wk =   0.0234375

     Dense  grid:     2565 G-vectors     FFT dimensions: (  20,  20,  20)

     Largest allocated arrays     est. size (Mb)     dimensions
        Kohn-Sham Wavefunctions         0.07 Mb     (     328,   13)
        NL pseudopotentials             0.09 Mb     (     328,   18)
        Each V/rho on FFT grid          0.12 Mb     (    8000)
        Each G-vector array             0.02 Mb     (    2565)
        G-vector shells                 0.00 Mb     (      62)
     Largest temporary arrays     est. size (Mb)     dimensions
        Auxiliary wavefunctions         0.26 Mb     (     328,   52)
        Each subspace H/S matrix        0.04 Mb     (      52,   52)
        Each <psi_i|beta_j> matrix      0.00 Mb     (      18,   13)
        Arrays for rho mixing           0.98 Mb     (    8000,    8)

     Check: negative/imaginary core charge=   -0.000044    0.000000

     Initial potential from superposition of free atoms

     starting charge   17.99977, renormalised to   18.00000
     Starting wfc are   10 randomized atomic wfcs +    3 random wfc

     total cpu time spent up to now is        2.6 secs

     per-process dynamical memory:    11.7 Mb

     Self-consistent Calculation

     iteration #  1     ecut=    40.00 Ry     beta=0.70
     Davidson diagonalization with overlap
     ethr =  1.00E-02,  avg # of iterations =  4.3

     Threshold (ethr) on eigenvalues was too large:
     Diagonalizing with lowered threshold

     Davidson diagonalization with overlap
     ethr =  1.94E-04,  avg # of iterations =  1.2

     total cpu time spent up to now is        6.0 secs

     total energy              =    -338.86799849 Ry
     Harris-Foulkes estimate   =    -338.88950033 Ry
     estimated scf accuracy    <       0.03621967 Ry

     iteration #  2     ecut=    40.00 Ry     beta=0.70
     Davidson diagonalization with overlap
     ethr =  2.01E-04,  avg # of iterations =  2.1

     total cpu time spent up to now is        7.7 secs

     total energy              =    -338.85983973 Ry
     Harris-Foulkes estimate   =    -338.89692120 Ry
     estimated scf accuracy    <       0.09681099 Ry

     iteration #  3     ecut=    40.00 Ry     beta=0.70
     Davidson diagonalization with overlap
     ethr =  2.01E-04,  avg # of iterations =  2.0

     total cpu time spent up to now is        9.0 secs

     total energy              =    -338.87919645 Ry
     Harris-Foulkes estimate   =    -338.88042902 Ry
     estimated scf accuracy    <       0.00455799 Ry

     iteration #  4     ecut=    40.00 Ry     beta=0.70
     Davidson diagonalization with overlap
     ethr =  2.53E-05,  avg # of iterations =  1.9

     total cpu time spent up to now is       10.4 secs

     total energy              =    -338.87979899 Ry
     Harris-Foulkes estimate   =    -338.87979514 Ry
     estimated scf accuracy    <       0.00002642 Ry

     iteration #  5     ecut=    40.00 Ry     beta=0.70
     Davidson diagonalization with overlap
     ethr =  1.47E-07,  avg # of iterations =  2.6

     total cpu time spent up to now is       11.9 secs

     total energy              =    -338.87980981 Ry
     Harris-Foulkes estimate   =    -338.87981042 Ry
     estimated scf accuracy    <       0.00000191 Ry

     iteration #  6     ecut=    40.00 Ry     beta=0.70
     Davidson diagonalization with overlap
     ethr =  1.06E-08,  avg # of iterations =  1.4

     total cpu time spent up to now is       12.9 secs

     End of self-consistent calculation

          k =-0.0625 0.0625 0.0625 (   328 PWs)   bands (ev):

   -85.6250 -45.6069 -45.6069 -45.5459   8.8354  15.5549  15.5890  15.5890
    16.6364  16.6364  40.5721  43.2137  44.5694

     occupation numbers 
     1.0000   1.0000   1.0000   1.0000   1.0000   1.0000   1.0000   1.0000
     1.0004   1.0004   0.0000   0.0000   0.0000

          k =-0.1875 0.1875-0.0625 (   318 PWs)   bands (ev):

   -85.6157 -45.5457 -45.4936 -45.4273   9.6346  15.4141  15.7786  15.8298
    16.6001  16.7683  37.2329  40.0018  43.6965

     occupation numbers 
     1.0000   1.0000   1.0000   1.0000   1.0000   1.0000   1.0000   1.0000
     1.0002   1.0033   0.0000   0.0000   0.0000

          k =-0.3125 0.3125-0.1875 (   311 PWs)   bands (ev):

   -85.6006 -45.4457 -45.4222 -45.3848  11.3729  15.2072  15.8152  15.9285
    16.8620  17.2192  31.1109  38.8851  42.5859

     occupation numbers 
     1.0000   1.0000   1.0000   1.0000   1.0000   1.0000   1.0000   1.0000
     1.0116   1.0633   0.0000   0.0000   0.0000

          k =-0.4375 0.4375-0.3125 (   318 PWs)   bands (ev):

   -85.5907 -45.5946 -45.4538 -45.4451  12.9209  15.6338  15.7471  15.8930
    17.2523  17.7217  25.8279  38.5290  41.2455

     occupation numbers 
     1.0000   1.0000   1.0000   1.0000   1.0000   1.0000   1.0000   1.0000
     1.0365   0.0804   0.0000   0.0000   0.0000

          k = 0.4375-0.4375 0.5625 (   319 PWs)   bands (ev):

   -85.5873 -45.5977 -45.4649 -45.4626  13.2322  15.5567  15.7004  16.5166
    17.4711  18.1888  23.7663  38.8500  40.8597

     occupation numbers 
     1.0000   1.0000   1.0000   1.0000   1.0000   1.0000   1.0000   1.0000
     0.5676   0.0000   0.0000   0.0000   0.0000

          k = 0.3125-0.3125 0.4375 (   315 PWs)   bands (ev):

   -85.5930 -45.5502 -45.4563 -45.3782  12.5438  15.4877  15.7021  15.8020
    17.3382  17.3778  27.4219  39.6109  40.2939

     occupation numbers 
     1.0000   1.0000   1.0000   1.0000   1.0000   1.0000   1.0000   1.0000
     0.9051   0.8163   0.0000   0.0000   0.0000

          k = 0.1875-0.1875 0.3125 (   315 PWs)   bands (ev):

   -85.6067 -45.4966 -45.4634 -45.4344  10.7183  15.2125  15.8610  15.9052
    16.7095  16.9878  33.1066  40.6213  40.8427

     occupation numbers 
     1.0000   1.0000   1.0000   1.0000   1.0000   1.0000   1.0000   1.0000
     1.0013   1.0407   0.0000   0.0000   0.0000

          k = 0.0625-0.0625 0.1875 (   320 PWs)   bands (ev):

   -85.6191 -45.5478 -45.5456 -45.4150   9.2463  15.4690  15.7362  15.7705
    16.5843  16.7416  39.2003  41.7626  42.3146

     occupation numbers 
     1.0000   1.0000   1.0000   1.0000   1.0000   1.0000   1.0000   1.0000
     1.0001   1.0022   0.0000   0.0000   0.0000

          k =-0.0625 0.3125 0.0625 (   316 PWs)   bands (ev):

   -85.6119 -45.5216 -45.4772 -45.4059  10.0144  15.2069  15.9997  16.0140
    16.4160  16.8820  37.5160  39.9825  40.2958

     occupation numbers 
     1.0000   1.0000   1.0000   1.0000   1.0000   1.0000   1.0000   1.0000
     1.0000   1.0146   0.0000   0.0000   0.0000

          k =-0.1875 0.4375-0.0625 (   314 PWs)   bands (ev):

   -85.6010 -45.5011 -45.4649 -45.4063  11.3995  14.9179  15.8532  16.2737
    16.6498  17.2219  33.6212  36.2814  40.1566

     occupation numbers 
     1.0000   1.0000   1.0000   1.0000   1.0000   1.0000   1.0000   1.0000
     1.0005   1.0615   0.0000   0.0000   0.0000

          k =-0.3125 0.5625-0.1875 (   316 PWs)   bands (ev):

   -85.5900 -45.5887 -45.4551 -45.4205  13.0883  14.9588  15.4910  16.1763
    17.2997  18.0717  27.9201  35.6941  37.6406

     occupation numbers 
     1.0000   1.0000   1.0000   1.0000   1.0000   1.0000   1.0000   1.0000
     0.9752   0.0004   0.0000   0.0000   0.0000

          k = 0.5625-0.3125 0.6875 (   314 PWs)   bands (ev):

   -85.5830 -45.5267 -45.4807 -45.3741  13.7067  15.1283  15.7589  16.0326
    17.4372  19.9754  23.9822  35.1515  36.8684

     occupation numbers 
     1.0000   1.0000   1.0000   1.0000   1.0000   1.0000   1.0000   1.0000
     0.6613   0.0000   0.0000   0.0000   0.0000

          k = 0.4375-0.1875 0.5625 (   316 PWs)   bands (ev):

   -85.5871 -45.5631 -45.4630 -45.4278  13.4685  15.1912  15.4304  16.0779
    17.1872  18.8167  26.2926  34.2876  38.5051

     occupation numbers 
     1.0000   1.0000   1.0000   1.0000   1.0000   1.0000   1.0000   1.0000
     1.0779   0.0000   0.0000   0.0000   0.0000

          k = 0.3125-0.0625 0.4375 (   315 PWs)   bands (ev):

   -85.5976 -45.5121 -45.4939 -45.4124  12.0127  14.9705  15.6688  16.2515
    16.6134  17.5815  31.6326  34.4279  41.1260

     occupation numbers 
     1.0000   1.0000   1.0000   1.0000   1.0000   1.0000   1.0000   1.0000
     1.0002   0.2887   0.0000   0.0000   0.0000

          k = 0.1875 0.0625 0.3125 (   316 PWs)   bands (ev):

   -85.6094 -45.5086 -45.4766 -45.4374  10.3778  15.2115  15.8937  15.9841
    16.5032  16.9705  35.3381  38.0680  42.6368

     occupation numbers 
     1.0000   1.0000   1.0000   1.0000   1.0000   1.0000   1.0000   1.0000
     1.0000   1.0353   0.0000   0.0000   0.0000

          k =-0.0625 0.5625 0.0625 (   311 PWs)   bands (ev):

   -85.5937 -45.4564 -45.4388 -45.4287  12.2199  14.5400  16.0229  16.7160
    16.9661  17.2599  34.2258  35.8679  36.0759

     occupation numbers 
     1.0000   1.0000   1.0000   1.0000   1.0000   1.0000   1.0000   1.0015
     1.0340   1.0286   0.0000   0.0000   0.0000

          k =-0.1875 0.6875-0.0625 (   319 PWs)   bands (ev):

   -85.5871 -45.6447 -45.5210 -45.4476  13.2724  14.3253  15.9096  16.8975
    17.2738  18.2466  30.8279  32.8002  33.7543

     occupation numbers 
     1.0000   1.0000   1.0000   1.0000   1.0000   1.0000   1.0000   1.0174
     1.0122   0.0000   0.0000   0.0000   0.0000

          k = 0.6875-0.1875 0.8125 (   314 PWs)   bands (ev):

   -85.5788 -45.5079 -45.4947 -45.4016  14.0092  14.4590  15.6187  16.7021
    17.5223  21.1553  25.8543  30.6668  33.9402

     occupation numbers 
     1.0000   1.0000   1.0000   1.0000   1.0000   1.0000   1.0000   1.0012
     0.4295   0.0000   0.0000   0.0000   0.0000

          k = 0.5625-0.0625 0.6875 (   314 PWs)   bands (ev):

   -85.5792 -45.4975 -45.4590 -45.4199  14.3554  14.6302  15.2181  16.5574
    17.2628  21.4871  25.6374  29.3950  35.6471

     occupation numbers 
     1.0000   1.0000   1.0000   1.0000   1.0000   1.0000   1.0000   1.0001
     1.0253   0.0000   0.0000   0.0000   0.0000

          k = 0.4375 0.0625 0.5625 (   318 PWs)   bands (ev):

   -85.5879 -45.5776 -45.5085 -45.4482  13.5733  14.9337  15.2010  16.3622
    16.8833  18.8844  28.4057  31.4712  38.2510

     occupation numbers 
     1.0000   1.0000   1.0000   1.0000   1.0000   1.0000   1.0000   1.0000
     1.0148   0.0000   0.0000   0.0000   0.0000

          k = 0.3125 0.1875 0.4375 (   314 PWs)   bands (ev):

   -85.5955 -45.5180 -45.4509 -45.3944  12.2199  15.1290  15.6923  15.9821
    17.0179  17.4965  29.3752  37.2131  40.8695

     occupation numbers 
     1.0000   1.0000   1.0000   1.0000   1.0000   1.0000   1.0000   1.0000
     1.0508   0.4980   0.0000   0.0000   0.0000

          k =-0.0625 0.8125 0.0625 (   322 PWs)   bands (ev):

   -85.5828 -45.6441 -45.5564 -45.5549  13.2864  13.9798  17.0370  17.2357
    17.4880  18.6472  29.5658  31.9354  33.1142

     occupation numbers 
     1.0000   1.0000   1.0000   1.0000   1.0000   1.0000   1.0574   1.0515
     0.5209   0.0000   0.0000   0.0000   0.0000

          k = 0.8125-0.0625 0.9375 (   317 PWs)   bands (ev):

   -85.5771 -45.5426 -45.5277 -45.4792  13.5483  13.9981  16.6741  17.2360
    17.6626  21.0742  27.5160  29.5246  31.9936

     occupation numbers 
     1.0000   1.0000   1.0000   1.0000   1.0000   1.0000   1.0007   1.0513
     0.1462   0.0000   0.0000   0.0000   0.0000

          k = 0.6875 0.0625 0.8125 (   313 PWs)   bands (ev):

   -85.5757 -45.4978 -45.4907 -45.3685  14.0233  14.3449  15.8298  16.9258
    17.5080  23.0314  25.2295  28.2584  33.4716

     occupation numbers 
     1.0000   1.0000   1.0000   1.0000   1.0000   1.0000   1.0000   1.0234
     0.4670   0.0000   0.0000   0.0000   0.0000

          k = 0.5625 0.1875 0.6875 (   310 PWs)   bands (ev):

   -85.5793 -45.4477 -45.4049 -45.3924  14.0888  14.8356  15.5019  16.3243
    17.4102  21.1705  24.2213  32.1022  36.0174

     occupation numbers 
     1.0000   1.0000   1.0000   1.0000   1.0000   1.0000   1.0000   1.0000
     0.7340   0.0000   0.0000   0.0000   0.0000

          k = 0.4375 0.3125 0.5625 (   316 PWs)   bands (ev):

   -85.5865 -45.5392 -45.4740 -45.4189  13.3190  15.4352  15.8160  15.9625
    17.4074  18.5797  24.6783  37.2174  39.1474

     occupation numbers 
     1.0000   1.0000   1.0000   1.0000   1.0000   1.0000   1.0000   1.0000
     0.7414   0.0000   0.0000   0.0000   0.0000

          k =-0.0625-0.9375 0.0625 (   316 PWs)   bands (ev):

   -85.5767 -45.5398 -45.5233 -45.4556  13.3573  13.8630  17.3880  17.3896
    17.6919  20.0641  27.4576  31.3570  32.5087

     occupation numbers 
     1.0000   1.0000   1.0000   1.0000   1.0000   1.0000   0.7912   0.7873
     0.1099   0.0000   0.0000   0.0000   0.0000

          k =-0.1875-0.8125-0.0625 (   318 PWs)   bands (ev):

   -85.5807 -45.5690 -45.5421 -45.4750  13.5197  14.1111  16.3787  17.1430
    17.4743  19.6299  29.5456  30.2537  32.5394

     occupation numbers 
     1.0000   1.0000   1.0000   1.0000   1.0000   1.0000   1.0000   1.0832
     0.5587   0.0000   0.0000   0.0000   0.0000

          k =-0.3125-0.6875-0.1875 (   317 PWs)   bands (ev):

   -85.5844 -45.5832 -45.4970 -45.4331  13.7219  14.6819  15.4493  16.4309
    17.4505  19.3137  26.7480  33.6916  34.9763

     occupation numbers 
     1.0000   1.0000   1.0000   1.0000   1.0000   1.0000   1.0000   1.0000
     0.6245   0.0000   0.0000   0.0000   0.0000

          k =-0.0625-0.6875 0.0625 (   319 PWs)   bands (ev):

   -85.5883 -45.6417 -45.5126 -45.4828  13.0181  14.2180  16.4331  17.0251
    17.3351  17.4906  32.4553  33.1313  34.2674

     occupation numbers 
     1.0000   1.0000   1.0000   1.0000   1.0000   1.0000   1.0000   1.0533
     0.9114   0.5140   0.0000   0.0000   0.0000

          k =-0.1875-0.5625-0.0625 (   317 PWs)   bands (ev):

   -85.5940 -45.5886 -45.4829 -45.4452  12.4974  14.5986  15.7135  16.5922
    16.9890  17.5211  32.1084  34.6439  36.7262

     occupation numbers 
     1.0000   1.0000   1.0000   1.0000   1.0000   1.0000   1.0000   1.0002
     1.0411   0.4325   0.0000   0.0000   0.0000

          k =-0.0625-0.4375 0.0625 (   309 PWs)   bands (ev):

   -85.6014 -45.4510 -45.4246 -45.3143  11.0800  14.8927  16.1290  16.3696
    16.5521  17.0778  35.8294  37.7953  38.8044

     occupation numbers 
     1.0000   1.0000   1.0000   1.0000   1.0000   1.0000   1.0000   1.0000
     1.0001   1.0708   0.0000   0.0000   0.0000

          k =-0.1875 0.1875 0.1875 (   314 PWs)   bands (ev):

   -85.6116 -45.4533 -45.4533 -45.4337  10.0142  15.3505  15.8614  15.8614
    16.7572  16.7572  35.0751  41.7759  43.1957

     occupation numbers 
     1.0000   1.0000   1.0000   1.0000   1.0000   1.0000   1.0000   1.0000
     1.0028   1.0028   0.0000   0.0000   0.0000

          k =-0.3125 0.3125 0.0625 (   314 PWs)   bands (ev):

   -85.6038 -45.4789 -45.4589 -45.4255  11.0743  15.1405  15.8041  16.0689
    16.5057  17.2759  33.3643  36.1407  44.0554

     occupation numbers 
     1.0000   1.0000   1.0000   1.0000   1.0000   1.0000   1.0000   1.0000
     1.0000   1.0095   0.0000   0.0000   0.0000

          k =-0.4375 0.4375-0.0625 (   315 PWs)   bands (ev):

   -85.5925 -45.5557 -45.4616 -45.4069  12.8024  15.0049  15.4885  16.2342
    16.6938  18.1019  29.8971  32.8050  42.0739

     occupation numbers 
     1.0000   1.0000   1.0000   1.0000   1.0000   1.0000   1.0000   1.0000
     1.0010   0.0002   0.0000   0.0000   0.0000

          k = 0.4375-0.4375 0.8125 (   314 PWs)   bands (ev):

   -85.5831 -45.5300 -45.4201 -45.4193  13.7723  15.1229  15.5168  16.1250
    17.2751  19.8284  25.0149  33.0568  39.0612

     occupation numbers 
     1.0000   1.0000   1.0000   1.0000   1.0000   1.0000   1.0000   1.0000
     1.0105   0.0000   0.0000   0.0000   0.0000

          k = 0.3125-0.3125 0.6875 (   317 PWs)   bands (ev):

   -85.5842 -45.5482 -45.5024 -45.4491  13.7004  14.9221  15.5669  16.1544
    17.5253  19.6585  24.9980  34.3967  37.2075

     occupation numbers 
     1.0000   1.0000   1.0000   1.0000   1.0000   1.0000   1.0000   1.0000
     0.4218   0.0000   0.0000   0.0000   0.0000

          k = 0.1875-0.1875 0.5625 (   318 PWs)   bands (ev):

   -85.5931 -45.6126 -45.4780 -45.4536  12.7273  14.7172  15.6163  16.3212
    17.3526  17.5251  29.8659  36.5730  36.8011

     occupation numbers 
     1.0000   1.0000   1.0000   1.0000   1.0000   1.0000   1.0000   1.0000
     0.8746   0.4222   0.0000   0.0000   0.0000

          k =-0.1875 0.4375 0.1875 (   315 PWs)   bands (ev):

   -85.5993 -45.5078 -45.4748 -45.4144  11.6901  14.9784  15.7918  16.0602
    16.9660  17.2109  31.3627  38.6770  39.1177

     occupation numbers 
     1.0000   1.0000   1.0000   1.0000   1.0000   1.0000   1.0000   1.0000
     1.0340   1.0680   0.0000   0.0000   0.0000

          k =-0.3125 0.5625 0.0625 (   317 PWs)   bands (ev):

   -85.5914 -45.5828 -45.5032 -45.4305  13.0038  14.7442  15.4147  16.4905
    16.9260  18.1167  30.1392  32.9761  37.3754

     occupation numbers 
     1.0000   1.0000   1.0000   1.0000   1.0000   1.0000   1.0000   1.0000
     1.0234   0.0001   0.0000   0.0000   0.0000

          k = 0.5625-0.3125 0.9375 (   317 PWs)   bands (ev):

   -85.5823 -45.5430 -45.5161 -45.4374  14.1449  14.7662  15.0246  16.5515
    17.1837  20.2412  27.1792  30.4355  34.6214

     occupation numbers 
     1.0000   1.0000   1.0000   1.0000   1.0000   1.0000   1.0000   1.0001
     1.0789   0.0000   0.0000   0.0000   0.0000

          k = 0.4375-0.1875 0.8125 (   316 PWs)   bands (ev):

   -85.5794 -45.5306 -45.5006 -45.4392  14.3197  14.5650  15.2997  16.5160
    17.4225  22.0214  24.5096  31.3522  32.8442

     occupation numbers 
     1.0000   1.0000   1.0000   1.0000   1.0000   1.0000   1.0000   1.0000
     0.7011   0.0000   0.0000   0.0000   0.0000

          k = 0.3125-0.0625 0.6875 (   318 PWs)   bands (ev):

   -85.5848 -45.6292 -45.5038 -45.4168  13.7135  14.5347  15.3686  16.7851
    17.2057  19.1290  28.9187  31.7580  33.8377

     occupation numbers 
     1.0000   1.0000   1.0000   1.0000   1.0000   1.0000   1.0000   1.0042
     1.0707   0.0000   0.0000   0.0000   0.0000

          k =-0.1875 0.6875 0.1875 (   320 PWs)   bands (ev):

   -85.5867 -45.6336 -45.5026 -45.5013  13.4515  14.4235  15.7003  16.5933
    17.4819  18.5937  28.6339  33.2898  35.2980

     occupation numbers 
     1.0000   1.0000   1.0000   1.0000   1.0000   1.0000   1.0000   1.0002
     0.5376   0.0000   0.0000   0.0000   0.0000

          k = 0.6875-0.1875 1.0625 (   315 PWs)   bands (ev):

   -85.5787 -45.5281 -45.5133 -45.4024  13.9041  14.3752  15.6763  16.9567
    17.4687  20.7860  28.0045  30.1851  31.3757

     occupation numbers 
     1.0000   1.0000   1.0000   1.0000   1.0000   1.0000   1.0000   1.0313
     0.5741   0.0000   0.0000   0.0000   0.0000

          k = 0.5625-0.0625 0.9375 (   315 PWs)   bands (ev):

   -85.5759 -45.5206 -45.5015 -45.4132  14.1518  14.6870  15.2569  16.7503
    17.6578  23.9934  25.7197  28.2696  29.7800

     occupation numbers 
     1.0000   1.0000   1.0000   1.0000   1.0000   1.0000   1.0000   1.0025
     0.1530   0.0000   0.0000   0.0000   0.0000

          k = 0.4375 0.0625 0.8125 (   314 PWs)   bands (ev):

   -85.5776 -45.5074 -45.4778 -45.4101  14.2771  14.6875  15.0996  16.7358
    17.4707  22.0500  26.2685  29.6411  31.4190

     occupation numbers 
     1.0000   1.0000   1.0000   1.0000   1.0000   1.0000   1.0000   1.0020
     0.5686   0.0000   0.0000   0.0000   0.0000

          k =-0.1875-1.0625 0.1875 (   316 PWs)   bands (ev):

   -85.5767 -45.5397 -45.4955 -45.4605  13.7250  14.1149  16.3382  17.0696
    17.6083  21.8444  26.9186  28.1130  33.6793

     occupation numbers 
     1.0000   1.0000   1.0000   1.0000   1.0000   1.0000   1.0000   1.0683
     0.2348   0.0000   0.0000   0.0000   0.0000

          k =-0.3125-0.9375 0.0625 (   314 PWs)   bands (ev):

   -85.5755 -45.5107 -45.4840 -45.4118  13.8752  14.2909  15.9196  17.0345
    17.6847  22.4529  27.2739  28.1213  30.7812

     occupation numbers 
     1.0000   1.0000   1.0000   1.0000   1.0000   1.0000   1.0000   1.0565
     0.1181   0.0000   0.0000   0.0000   0.0000

          k =-0.1875-0.8125 0.1875 (   315 PWs)   bands (ev):

   -85.5794 -45.5481 -45.4970 -45.4128  13.7055  14.2311  16.1049  16.9167
    17.5463  20.2547  27.6994  30.1926  34.2369

     occupation numbers 
     1.0000   1.0000   1.0000   1.0000   1.0000   1.0000   1.0000   1.0213
     0.3693   0.0000   0.0000   0.0000   0.0000

          k =-0.3125 0.3125 0.3125 (   308 PWs)   bands (ev):

   -85.5959 -45.4089 -45.3679 -45.3679  11.9031  15.3669  15.8269  15.8269
    17.2093  17.2093  29.1154  40.6574  42.3869

     occupation numbers 
     1.0000   1.0000   1.0000   1.0000   1.0000   1.0000   1.0000   1.0000
     1.0689   1.0689   0.0000   0.0000   0.0000

          k =-0.4375 0.4375 0.1875 (   317 PWs)   bands (ev):

   -85.5922 -45.6033 -45.4574 -45.4205  12.8536  15.2556  15.5674  15.9124
    17.0409  17.9650  27.6743  35.6283  41.6630

     occupation numbers 
     1.0000   1.0000   1.0000   1.0000   1.0000   1.0000   1.0000   1.0000
     1.0587   0.0027   0.0000   0.0000   0.0000

          k = 0.4375-0.4375 1.0625 (   313 PWs)   bands (ev):

   -85.5822 -45.5092 -45.4554 -45.3727  14.0669  14.9514  15.1502  16.4284
    17.0337  19.9777  26.8990  30.2828  38.6981

     occupation numbers 
     1.0000   1.0000   1.0000   1.0000   1.0000   1.0000   1.0000   1.0000
     1.0562   0.0000   0.0000   0.0000   0.0000

          k = 0.3125-0.3125 0.9375 (   315 PWs)   bands (ev):

   -85.5778 -45.5332 -45.4542 -45.4326  14.2474  14.4504  15.5192  16.7332
    17.3319  22.9335  24.4188  28.6673  35.8275

     occupation numbers 
     1.0000   1.0000   1.0000   1.0000   1.0000   1.0000   1.0000   1.0019
     0.9178   0.0000   0.0000   0.0000   0.0000

          k =-0.3125 0.5625 0.3125 (   317 PWs)   bands (ev):

   -85.5888 -45.6019 -45.4965 -45.3827  13.1807  15.2959  15.6415  15.9295
    17.4776  18.1577  26.0458  37.5455  38.5507

     occupation numbers 
     1.0000   1.0000   1.0000   1.0000   1.0000   1.0000   1.0000   1.0000
     0.5496   0.0001   0.0000   0.0000   0.0000

          k = 0.5625-0.3125 1.1875 (   313 PWs)   bands (ev):

   -85.5816 -45.4843 -45.4411 -45.4271  13.9622  14.8617  15.3944  16.3187
    17.4071  20.2281  25.2185  33.1744  35.0384

     occupation numbers 
     1.0000   1.0000   1.0000   1.0000   1.0000   1.0000   1.0000   1.0000
     0.7423   0.0000   0.0000   0.0000   0.0000

          k = 0.4375-0.1875 1.0625 (   313 PWs)   bands (ev):

   -85.5765 -45.4857 -45.4631 -45.4087  14.3432  14.5827  15.2690  16.7055
    17.4909  23.3304  24.7606  28.8159  32.3756

     occupation numbers 
     1.0000   1.0000   1.0000   1.0000   1.0000   1.0000   1.0000   1.0012
     0.5131   0.0000   0.0000   0.0000   0.0000

          k =-0.3125-1.1875 0.3125 (   311 PWs)   bands (ev):

   -85.5787 -45.4448 -45.4402 -45.4101  14.1020  14.6490  15.5460  16.4989
    17.4852  21.5229  24.3424  31.2500  36.2921

     occupation numbers 
     1.0000   1.0000   1.0000   1.0000   1.0000   1.0000   1.0000   1.0000
     0.5285   0.0000   0.0000   0.0000   0.0000

          k =-0.4375 0.4375 0.4375 (   317 PWs)   bands (ev):

   -85.5884 -45.5407 -45.4562 -45.4562  13.0656  15.6566  15.6566  16.7121
    17.4224  17.4224  24.5253  39.7752  42.1279

     occupation numbers 
     1.0000   1.0000   1.0000   1.0000   1.0000   1.0000   1.0000   1.0014
     0.7013   0.7013   0.0000   0.0000   0.0000

          k = 0.4375-0.4375 1.3125 (   316 PWs)   bands (ev):

   -85.5850 -45.5231 -45.4619 -45.4549  13.4964  15.3600  15.8620  15.9900
    17.3997  19.2550  23.8830  36.1576  39.7911

     occupation numbers 
     1.0000   1.0000   1.0000   1.0000   1.0000   1.0000   1.0000   1.0000
     0.7614   0.0000   0.0000   0.0000   0.0000

     the Fermi energy is    17.5336 ev

!    total energy              =    -338.87981007 Ry
     Harris-Foulkes estimate   =    -338.87981007 Ry
     estimated scf accuracy    <          9.2E-09 Ry

     The total energy is the sum of the following terms:

     one-electron contribution =    -186.21856685 Ry
     hartree contribution      =     104.32362837 Ry
     xc contribution           =     -33.90358296 Ry
     ewald contribution        =    -223.08083981 Ry
     smearing contrib. (-TS)   =      -0.00044883 Ry

     convergence has been achieved in   6 iterations

     Writing output data file Ni_exc2.save

     init_run     :      1.80s CPU      1.82s WALL (       1 calls)
     electrons    :      9.96s CPU     10.29s WALL (       1 calls)

     Called by init_run:
     wfcinit      :      0.38s CPU      0.40s WALL (       1 calls)
     potinit      :      0.02s CPU      0.02s WALL (       1 calls)

     Called by electrons:
     c_bands      :      8.30s CPU      8.57s WALL (       7 calls)
     sum_band     :      1.37s CPU      1.42s WALL (       7 calls)
     v_of_rho     :      0.12s CPU      0.11s WALL (       7 calls)
     v_h          :      0.00s CPU      0.00s WALL (       7 calls)
     v_xc         :      0.11s CPU      0.11s WALL (       7 calls)
     newd         :      0.22s CPU      0.22s WALL (       7 calls)
     mix_rho      :      0.00s CPU      0.00s WALL (       7 calls)

     Called by c_bands:
     init_us_2    :      0.41s CPU      0.39s WALL (     900 calls)
     cegterg      :      7.83s CPU      8.06s WALL (     420 calls)

     Called by sum_band:
     sum_band:bec :      0.01s CPU      0.01s WALL (     420 calls)
     addusdens    :      0.20s CPU      0.19s WALL (       7 calls)

     Called by *egterg:
     h_psi        :      4.57s CPU      4.63s WALL (    1414 calls)
     s_psi        :      0.43s CPU      0.44s WALL (    1414 calls)
     g_psi        :      0.03s CPU      0.04s WALL (     934 calls)
     cdiaghg      :      1.23s CPU      1.29s WALL (    1294 calls)
     cegterg:over :      0.69s CPU      0.80s WALL (     934 calls)
     cegterg:upda :      0.46s CPU      0.47s WALL (     934 calls)
     cegterg:last :      0.31s CPU      0.29s WALL (     420 calls)

     Called by h_psi:
     h_psi:vloc   :      3.63s CPU      3.67s WALL (    1414 calls)
     h_psi:vnl    :      0.89s CPU      0.93s WALL (    1414 calls)
     add_vuspsi   :      0.42s CPU      0.44s WALL (    1414 calls)

     General routines
     calbec       :      0.62s CPU      0.67s WALL (    1834 calls)
     fft          :      0.02s CPU      0.01s WALL (      93 calls)
     fftw         :      3.30s CPU      3.45s WALL (   33044 calls)
     davcio       :      0.00s CPU      0.02s WALL (      60 calls)

     Parallel routines
     fft_scatter  :      0.51s CPU      0.46s WALL (   33137 calls)

     PWSCF        :    12.76s CPU        13.21s WALL


   This run was terminated on:  21:55:52  18Feb2020            

=------------------------------------------------------------------------------=
   JOB DONE.
=------------------------------------------------------------------------------=
