
     Program PWSCF v.5.1 starts on 18Feb2020 at 21:18:49 

     This program is part of the open-source Quantum ESPRESSO suite
     for quantum simulation of materials; please cite
         "P. Giannozzi et al., J. Phys.:Condens. Matter 21 395502 (2009);
          URL http://www.quantum-espresso.org", 
     in publications or presentations arising from this work. More details at
     http://www.quantum-espresso.org/quote

     Parallel version (MPI), running on     1 processors
     Waiting for input...
     Reading input from standard input

     Current dimensions of program PWSCF are:
     Max number of different atomic species (ntypx) = 10
     Max number of k-points (npk) =  40000
     Max angular momentum in pseudopotentials (lmaxx) =  3

     Subspace diagonalization in iterative solution of the eigenvalue problem:
     a serial algorithm will be used


     G-vector sticks info
     --------------------
     sticks:   dense  smooth     PW     G-vecs:    dense   smooth      PW
     Sum         253     253     91                 2565     2565     609



     bravais-lattice index     =            2
     lattice parameter (alat)  =       6.6590  a.u.
     unit-cell volume          =      73.8188 (a.u.)^3
     number of atoms/cell      =            1
     number of atomic types    =            1
     number of electrons       =        18.00
     number of Kohn-Sham states=           13
     kinetic-energy cutoff     =      40.0000  Ry
     charge density cutoff     =     160.0000  Ry
     convergence threshold     =      1.0E-06
     mixing beta               =       0.7000
     number of iterations used =            8  plain     mixing
     Exchange-correlation      = PBESOL ( 1  4 10  8 0)

     celldm(1)=   6.659000  celldm(2)=   0.000000  celldm(3)=   0.000000
     celldm(4)=   0.000000  celldm(5)=   0.000000  celldm(6)=   0.000000

     crystal axes: (cart. coord. in units of alat)
               a(1) = (  -0.500000   0.000000   0.500000 )  
               a(2) = (   0.000000   0.500000   0.500000 )  
               a(3) = (  -0.500000   0.500000   0.000000 )  

     reciprocal axes: (cart. coord. in units 2 pi/alat)
               b(1) = ( -1.000000 -1.000000  1.000000 )  
               b(2) = (  1.000000  1.000000  1.000000 )  
               b(3) = ( -1.000000  1.000000 -1.000000 )  


     PseudoPot. # 1 for Ni read from file:
     ../pseudo/Ni.pbesol-spn-rrkjus_psl.1.0.0.UPF
     MD5 check sum: 6fc0a587bf949a08f2faed986b854013
     Pseudo is Ultrasoft + core correction, Zval = 18.0
     Generated using "atomic" code by A. Dal Corso  v.6.3
     Using radial grid of 1195 points,  6 beta functions with: 
                l(1) =   0
                l(2) =   0
                l(3) =   1
                l(4) =   1
                l(5) =   2
                l(6) =   2
     Q(r) pseudized with 0 coefficients 


     atomic species   valence    mass     pseudopotential
        Ni            18.00    58.69000     Ni( 1.00)

     48 Sym. Ops., with inversion, found


                                    s                        frac. trans.

      isym =  1     identity                                     

 cryst.   s( 1) = (     1          0          0      )
                  (     0          1          0      )
                  (     0          0          1      )

 cart.    s( 1) = (  1.0000000  0.0000000  0.0000000 )
                  (  0.0000000  1.0000000  0.0000000 )
                  (  0.0000000  0.0000000  1.0000000 )


      isym =  2     180 deg rotation - cart. axis [0,0,1]        

 cryst.   s( 2) = (     0          1         -1      )
                  (     1          0         -1      )
                  (     0          0         -1      )

 cart.    s( 2) = ( -1.0000000  0.0000000  0.0000000 )
                  (  0.0000000 -1.0000000  0.0000000 )
                  (  0.0000000  0.0000000  1.0000000 )


      isym =  3     180 deg rotation - cart. axis [0,1,0]        

 cryst.   s( 3) = (    -1          0          0      )
                  (    -1          0          1      )
                  (    -1          1          0      )

 cart.    s( 3) = ( -1.0000000  0.0000000  0.0000000 )
                  (  0.0000000  1.0000000  0.0000000 )
                  (  0.0000000  0.0000000 -1.0000000 )


      isym =  4     180 deg rotation - cart. axis [1,0,0]        

 cryst.   s( 4) = (     0         -1          1      )
                  (     0         -1          0      )
                  (     1         -1          0      )

 cart.    s( 4) = (  1.0000000  0.0000000  0.0000000 )
                  (  0.0000000 -1.0000000  0.0000000 )
                  (  0.0000000  0.0000000 -1.0000000 )


      isym =  5     180 deg rotation - cart. axis [1,1,0]        

 cryst.   s( 5) = (     0         -1          0      )
                  (    -1          0          0      )
                  (     0          0         -1      )

 cart.    s( 5) = (  0.0000000  1.0000000  0.0000000 )
                  (  1.0000000  0.0000000  0.0000000 )
                  (  0.0000000  0.0000000 -1.0000000 )


      isym =  6     180 deg rotation - cart. axis [1,-1,0]       

 cryst.   s( 6) = (    -1          0          1      )
                  (     0         -1          1      )
                  (     0          0          1      )

 cart.    s( 6) = (  0.0000000 -1.0000000  0.0000000 )
                  ( -1.0000000  0.0000000  0.0000000 )
                  (  0.0000000  0.0000000 -1.0000000 )


      isym =  7      90 deg rotation - cart. axis [0,0,-1]       

 cryst.   s( 7) = (     0          1          0      )
                  (     0          1         -1      )
                  (    -1          1          0      )

 cart.    s( 7) = (  0.0000000  1.0000000  0.0000000 )
                  ( -1.0000000  0.0000000  0.0000000 )
                  (  0.0000000  0.0000000  1.0000000 )


      isym =  8      90 deg rotation - cart. axis [0,0,1]        

 cryst.   s( 8) = (     1          0         -1      )
                  (     1          0          0      )
                  (     1         -1          0      )

 cart.    s( 8) = (  0.0000000 -1.0000000  0.0000000 )
                  (  1.0000000  0.0000000  0.0000000 )
                  (  0.0000000  0.0000000  1.0000000 )


      isym =  9     180 deg rotation - cart. axis [1,0,1]        

 cryst.   s( 9) = (    -1          0          0      )
                  (     0          0         -1      )
                  (     0         -1          0      )

 cart.    s( 9) = (  0.0000000  0.0000000  1.0000000 )
                  (  0.0000000 -1.0000000  0.0000000 )
                  (  1.0000000  0.0000000  0.0000000 )


      isym = 10     180 deg rotation - cart. axis [-1,0,1]       

 cryst.   s(10) = (     1          0          0      )
                  (     1         -1          0      )
                  (     1          0         -1      )

 cart.    s(10) = (  0.0000000  0.0000000 -1.0000000 )
                  (  0.0000000 -1.0000000  0.0000000 )
                  ( -1.0000000  0.0000000  0.0000000 )


      isym = 11      90 deg rotation - cart. axis [0,1,0]        

 cryst.   s(11) = (     0          1         -1      )
                  (    -1          1          0      )
                  (     0          1          0      )

 cart.    s(11) = (  0.0000000  0.0000000  1.0000000 )
                  (  0.0000000  1.0000000  0.0000000 )
                  ( -1.0000000  0.0000000  0.0000000 )


      isym = 12      90 deg rotation - cart. axis [0,-1,0]       

 cryst.   s(12) = (     0         -1          1      )
                  (     0          0          1      )
                  (    -1          0          1      )

 cart.    s(12) = (  0.0000000  0.0000000 -1.0000000 )
                  (  0.0000000  1.0000000  0.0000000 )
                  (  1.0000000  0.0000000  0.0000000 )


      isym = 13     180 deg rotation - cart. axis [0,1,1]        

 cryst.   s(13) = (    -1          1          0      )
                  (     0          1          0      )
                  (     0          1         -1      )

 cart.    s(13) = ( -1.0000000  0.0000000  0.0000000 )
                  (  0.0000000  0.0000000  1.0000000 )
                  (  0.0000000  1.0000000  0.0000000 )


      isym = 14     180 deg rotation - cart. axis [0,1,-1]       

 cryst.   s(14) = (     0          0         -1      )
                  (     0         -1          0      )
                  (    -1          0          0      )

 cart.    s(14) = ( -1.0000000  0.0000000  0.0000000 )
                  (  0.0000000  0.0000000 -1.0000000 )
                  (  0.0000000 -1.0000000  0.0000000 )


      isym = 15      90 deg rotation - cart. axis [-1,0,0]       

 cryst.   s(15) = (     0          0          1      )
                  (    -1          0          1      )
                  (     0         -1          1      )

 cart.    s(15) = (  1.0000000  0.0000000  0.0000000 )
                  (  0.0000000  0.0000000  1.0000000 )
                  (  0.0000000 -1.0000000  0.0000000 )


      isym = 16      90 deg rotation - cart. axis [1,0,0]        

 cryst.   s(16) = (     1         -1          0      )
                  (     1          0         -1      )
                  (     1          0          0      )

 cart.    s(16) = (  1.0000000  0.0000000  0.0000000 )
                  (  0.0000000  0.0000000 -1.0000000 )
                  (  0.0000000  1.0000000  0.0000000 )


      isym = 17     120 deg rotation - cart. axis [-1,-1,-1]     

 cryst.   s(17) = (    -1          0          1      )
                  (    -1          1          0      )
                  (    -1          0          0      )

 cart.    s(17) = (  0.0000000  1.0000000  0.0000000 )
                  (  0.0000000  0.0000000  1.0000000 )
                  (  1.0000000  0.0000000  0.0000000 )


      isym = 18     120 deg rotation - cart. axis [-1,1,1]       

 cryst.   s(18) = (     0          1          0      )
                  (     0          0          1      )
                  (     1          0          0      )

 cart.    s(18) = (  0.0000000 -1.0000000  0.0000000 )
                  (  0.0000000  0.0000000  1.0000000 )
                  ( -1.0000000  0.0000000  0.0000000 )


      isym = 19     120 deg rotation - cart. axis [1,1,-1]       

 cryst.   s(19) = (     1          0         -1      )
                  (     0          0         -1      )
                  (     0          1         -1      )

 cart.    s(19) = (  0.0000000  1.0000000  0.0000000 )
                  (  0.0000000  0.0000000 -1.0000000 )
                  ( -1.0000000  0.0000000  0.0000000 )


      isym = 20     120 deg rotation - cart. axis [1,-1,1]       

 cryst.   s(20) = (     0         -1          0      )
                  (     1         -1          0      )
                  (     0         -1          1      )

 cart.    s(20) = (  0.0000000 -1.0000000  0.0000000 )
                  (  0.0000000  0.0000000 -1.0000000 )
                  (  1.0000000  0.0000000  0.0000000 )


      isym = 21     120 deg rotation - cart. axis [1,1,1]        

 cryst.   s(21) = (     0          0         -1      )
                  (     0          1         -1      )
                  (     1          0         -1      )

 cart.    s(21) = (  0.0000000  0.0000000  1.0000000 )
                  (  1.0000000  0.0000000  0.0000000 )
                  (  0.0000000  1.0000000  0.0000000 )


      isym = 22     120 deg rotation - cart. axis [-1,1,-1]      

 cryst.   s(22) = (    -1          1          0      )
                  (    -1          0          0      )
                  (    -1          0          1      )

 cart.    s(22) = (  0.0000000  0.0000000  1.0000000 )
                  ( -1.0000000  0.0000000  0.0000000 )
                  (  0.0000000 -1.0000000  0.0000000 )


      isym = 23     120 deg rotation - cart. axis [1,-1,-1]      

 cryst.   s(23) = (     0          0          1      )
                  (     1          0          0      )
                  (     0          1          0      )

 cart.    s(23) = (  0.0000000  0.0000000 -1.0000000 )
                  ( -1.0000000  0.0000000  0.0000000 )
                  (  0.0000000  1.0000000  0.0000000 )


      isym = 24     120 deg rotation - cart. axis [-1,-1,1]      

 cryst.   s(24) = (     1         -1          0      )
                  (     0         -1          1      )
                  (     0         -1          0      )

 cart.    s(24) = (  0.0000000  0.0000000 -1.0000000 )
                  (  1.0000000  0.0000000  0.0000000 )
                  (  0.0000000 -1.0000000  0.0000000 )


      isym = 25     inversion                                    

 cryst.   s(25) = (    -1          0          0      )
                  (     0         -1          0      )
                  (     0          0         -1      )

 cart.    s(25) = ( -1.0000000  0.0000000  0.0000000 )
                  (  0.0000000 -1.0000000  0.0000000 )
                  (  0.0000000  0.0000000 -1.0000000 )


      isym = 26     inv. 180 deg rotation - cart. axis [0,0,1]   

 cryst.   s(26) = (     0         -1          1      )
                  (    -1          0          1      )
                  (     0          0          1      )

 cart.    s(26) = (  1.0000000  0.0000000  0.0000000 )
                  (  0.0000000  1.0000000  0.0000000 )
                  (  0.0000000  0.0000000 -1.0000000 )


      isym = 27     inv. 180 deg rotation - cart. axis [0,1,0]   

 cryst.   s(27) = (     1          0          0      )
                  (     1          0         -1      )
                  (     1         -1          0      )

 cart.    s(27) = (  1.0000000  0.0000000  0.0000000 )
                  (  0.0000000 -1.0000000  0.0000000 )
                  (  0.0000000  0.0000000  1.0000000 )


      isym = 28     inv. 180 deg rotation - cart. axis [1,0,0]   

 cryst.   s(28) = (     0          1         -1      )
                  (     0          1          0      )
                  (    -1          1          0      )

 cart.    s(28) = ( -1.0000000  0.0000000  0.0000000 )
                  (  0.0000000  1.0000000  0.0000000 )
                  (  0.0000000  0.0000000  1.0000000 )


      isym = 29     inv. 180 deg rotation - cart. axis [1,1,0]   

 cryst.   s(29) = (     0          1          0      )
                  (     1          0          0      )
                  (     0          0          1      )

 cart.    s(29) = (  0.0000000 -1.0000000  0.0000000 )
                  ( -1.0000000  0.0000000  0.0000000 )
                  (  0.0000000  0.0000000  1.0000000 )


      isym = 30     inv. 180 deg rotation - cart. axis [1,-1,0]  

 cryst.   s(30) = (     1          0         -1      )
                  (     0          1         -1      )
                  (     0          0         -1      )

 cart.    s(30) = (  0.0000000  1.0000000  0.0000000 )
                  (  1.0000000  0.0000000  0.0000000 )
                  (  0.0000000  0.0000000  1.0000000 )


      isym = 31     inv.  90 deg rotation - cart. axis [0,0,-1]  

 cryst.   s(31) = (     0         -1          0      )
                  (     0         -1          1      )
                  (     1         -1          0      )

 cart.    s(31) = (  0.0000000 -1.0000000  0.0000000 )
                  (  1.0000000  0.0000000  0.0000000 )
                  (  0.0000000  0.0000000 -1.0000000 )


      isym = 32     inv.  90 deg rotation - cart. axis [0,0,1]   

 cryst.   s(32) = (    -1          0          1      )
                  (    -1          0          0      )
                  (    -1          1          0      )

 cart.    s(32) = (  0.0000000  1.0000000  0.0000000 )
                  ( -1.0000000  0.0000000  0.0000000 )
                  (  0.0000000  0.0000000 -1.0000000 )


      isym = 33     inv. 180 deg rotation - cart. axis [1,0,1]   

 cryst.   s(33) = (     1          0          0      )
                  (     0          0          1      )
                  (     0          1          0      )

 cart.    s(33) = (  0.0000000  0.0000000 -1.0000000 )
                  (  0.0000000  1.0000000  0.0000000 )
                  ( -1.0000000  0.0000000  0.0000000 )


      isym = 34     inv. 180 deg rotation - cart. axis [-1,0,1]  

 cryst.   s(34) = (    -1          0          0      )
                  (    -1          1          0      )
                  (    -1          0          1      )

 cart.    s(34) = (  0.0000000  0.0000000  1.0000000 )
                  (  0.0000000  1.0000000  0.0000000 )
                  (  1.0000000  0.0000000  0.0000000 )


      isym = 35     inv.  90 deg rotation - cart. axis [0,1,0]   

 cryst.   s(35) = (     0         -1          1      )
                  (     1         -1          0      )
                  (     0         -1          0      )

 cart.    s(35) = (  0.0000000  0.0000000 -1.0000000 )
                  (  0.0000000 -1.0000000  0.0000000 )
                  (  1.0000000  0.0000000  0.0000000 )


      isym = 36     inv.  90 deg rotation - cart. axis [0,-1,0]  

 cryst.   s(36) = (     0          1         -1      )
                  (     0          0         -1      )
                  (     1          0         -1      )

 cart.    s(36) = (  0.0000000  0.0000000  1.0000000 )
                  (  0.0000000 -1.0000000  0.0000000 )
                  ( -1.0000000  0.0000000  0.0000000 )


      isym = 37     inv. 180 deg rotation - cart. axis [0,1,1]   

 cryst.   s(37) = (     1         -1          0      )
                  (     0         -1          0      )
                  (     0         -1          1      )

 cart.    s(37) = (  1.0000000  0.0000000  0.0000000 )
                  (  0.0000000  0.0000000 -1.0000000 )
                  (  0.0000000 -1.0000000  0.0000000 )


      isym = 38     inv. 180 deg rotation - cart. axis [0,1,-1]  

 cryst.   s(38) = (     0          0          1      )
                  (     0          1          0      )
                  (     1          0          0      )

 cart.    s(38) = (  1.0000000  0.0000000  0.0000000 )
                  (  0.0000000  0.0000000  1.0000000 )
                  (  0.0000000  1.0000000  0.0000000 )


      isym = 39     inv.  90 deg rotation - cart. axis [-1,0,0]  

 cryst.   s(39) = (     0          0         -1      )
                  (     1          0         -1      )
                  (     0          1         -1      )

 cart.    s(39) = ( -1.0000000  0.0000000  0.0000000 )
                  (  0.0000000  0.0000000 -1.0000000 )
                  (  0.0000000  1.0000000  0.0000000 )


      isym = 40     inv.  90 deg rotation - cart. axis [1,0,0]   

 cryst.   s(40) = (    -1          1          0      )
                  (    -1          0          1      )
                  (    -1          0          0      )

 cart.    s(40) = ( -1.0000000  0.0000000  0.0000000 )
                  (  0.0000000  0.0000000  1.0000000 )
                  (  0.0000000 -1.0000000  0.0000000 )


      isym = 41     inv. 120 deg rotation - cart. axis [-1,-1,-1]

 cryst.   s(41) = (     1          0         -1      )
                  (     1         -1          0      )
                  (     1          0          0      )

 cart.    s(41) = (  0.0000000 -1.0000000  0.0000000 )
                  (  0.0000000  0.0000000 -1.0000000 )
                  ( -1.0000000  0.0000000  0.0000000 )


      isym = 42     inv. 120 deg rotation - cart. axis [-1,1,1]  

 cryst.   s(42) = (     0         -1          0      )
                  (     0          0         -1      )
                  (    -1          0          0      )

 cart.    s(42) = (  0.0000000  1.0000000  0.0000000 )
                  (  0.0000000  0.0000000 -1.0000000 )
                  (  1.0000000  0.0000000  0.0000000 )


      isym = 43     inv. 120 deg rotation - cart. axis [1,1,-1]  

 cryst.   s(43) = (    -1          0          1      )
                  (     0          0          1      )
                  (     0         -1          1      )

 cart.    s(43) = (  0.0000000 -1.0000000  0.0000000 )
                  (  0.0000000  0.0000000  1.0000000 )
                  (  1.0000000  0.0000000  0.0000000 )


      isym = 44     inv. 120 deg rotation - cart. axis [1,-1,1]  

 cryst.   s(44) = (     0          1          0      )
                  (    -1          1          0      )
                  (     0          1         -1      )

 cart.    s(44) = (  0.0000000  1.0000000  0.0000000 )
                  (  0.0000000  0.0000000  1.0000000 )
                  ( -1.0000000  0.0000000  0.0000000 )


      isym = 45     inv. 120 deg rotation - cart. axis [1,1,1]   

 cryst.   s(45) = (     0          0          1      )
                  (     0         -1          1      )
                  (    -1          0          1      )

 cart.    s(45) = (  0.0000000  0.0000000 -1.0000000 )
                  ( -1.0000000  0.0000000  0.0000000 )
                  (  0.0000000 -1.0000000  0.0000000 )


      isym = 46     inv. 120 deg rotation - cart. axis [-1,1,-1] 

 cryst.   s(46) = (     1         -1          0      )
                  (     1          0          0      )
                  (     1          0         -1      )

 cart.    s(46) = (  0.0000000  0.0000000 -1.0000000 )
                  (  1.0000000  0.0000000  0.0000000 )
                  (  0.0000000  1.0000000  0.0000000 )


      isym = 47     inv. 120 deg rotation - cart. axis [1,-1,-1] 

 cryst.   s(47) = (     0          0         -1      )
                  (    -1          0          0      )
                  (     0         -1          0      )

 cart.    s(47) = (  0.0000000  0.0000000  1.0000000 )
                  (  1.0000000  0.0000000  0.0000000 )
                  (  0.0000000 -1.0000000  0.0000000 )


      isym = 48     inv. 120 deg rotation - cart. axis [-1,-1,1] 

 cryst.   s(48) = (    -1          1          0      )
                  (     0          1         -1      )
                  (     0          1          0      )

 cart.    s(48) = (  0.0000000  0.0000000  1.0000000 )
                  ( -1.0000000  0.0000000  0.0000000 )
                  (  0.0000000  1.0000000  0.0000000 )


     point group O_h (m-3m) 
     there are 10 classes
     the character table:

       E     8C3   6C2'  6C4   3C2   i     6S4   8S6   3s_h  6s_d 
A_1g   1.00  1.00  1.00  1.00  1.00  1.00  1.00  1.00  1.00  1.00
A_2g   1.00  1.00 -1.00 -1.00  1.00  1.00 -1.00  1.00  1.00 -1.00
E_g    2.00 -1.00  0.00  0.00  2.00  2.00  0.00 -1.00  2.00  0.00
T_1g   3.00  0.00 -1.00  1.00 -1.00  3.00  1.00  0.00 -1.00 -1.00
T_2g   3.00  0.00  1.00 -1.00 -1.00  3.00 -1.00  0.00 -1.00  1.00
A_1u   1.00  1.00  1.00  1.00  1.00 -1.00 -1.00 -1.00 -1.00 -1.00
A_2u   1.00  1.00 -1.00 -1.00  1.00 -1.00  1.00 -1.00 -1.00  1.00
E_u    2.00 -1.00  0.00  0.00  2.00 -2.00  0.00  1.00 -2.00  0.00
T_1u   3.00  0.00 -1.00  1.00 -1.00 -3.00 -1.00  0.00  1.00  1.00
T_2u   3.00  0.00  1.00 -1.00 -1.00 -3.00  1.00  0.00  1.00 -1.00

     the symmetry operations in each class:
     E        1
     3C2      2    4    3
     6C2'     5    6   14   13   10    9
     6C4      7    8   15   16   12   11
     8C3     17   19   20   18   24   21   22   23
     i       25
     3s_h    26   28   27
     6s_d    29   30   38   37   34   33
     6S4     31   32   39   40   36   35
     8S6     41   43   44   42   48   45   46   47

   Cartesian axes

     site n.     atom                  positions (alat units)
         1           Ni  tau(   1) = (   0.0000000   0.0000000   0.0000000  )

   Crystallographic axes

     site n.     atom                  positions (cryst. coord.)
         1           Ni  tau(   1) = (  0.0000000  0.0000000  0.0000000  )

     number of k points=   408  Marzari-Vanderbilt smearing, width (Ry)=  0.0200
                       cart. coord. in units 2pi/alat
        k(    1) = (  -0.0312500   0.0312500   0.0312500), wk =   0.0009766
        k(    2) = (  -0.0937500   0.0937500  -0.0312500), wk =   0.0029297
        k(    3) = (  -0.1562500   0.1562500  -0.0937500), wk =   0.0029297
        k(    4) = (  -0.2187500   0.2187500  -0.1562500), wk =   0.0029297
        k(    5) = (  -0.2812500   0.2812500  -0.2187500), wk =   0.0029297
        k(    6) = (  -0.3437500   0.3437500  -0.2812500), wk =   0.0029297
        k(    7) = (  -0.4062500   0.4062500  -0.3437500), wk =   0.0029297
        k(    8) = (  -0.4687500   0.4687500  -0.4062500), wk =   0.0029297
        k(    9) = (   0.4687500  -0.4687500   0.5312500), wk =   0.0029297
        k(   10) = (   0.4062500  -0.4062500   0.4687500), wk =   0.0029297
        k(   11) = (   0.3437500  -0.3437500   0.4062500), wk =   0.0029297
        k(   12) = (   0.2812500  -0.2812500   0.3437500), wk =   0.0029297
        k(   13) = (   0.2187500  -0.2187500   0.2812500), wk =   0.0029297
        k(   14) = (   0.1562500  -0.1562500   0.2187500), wk =   0.0029297
        k(   15) = (   0.0937500  -0.0937500   0.1562500), wk =   0.0029297
        k(   16) = (   0.0312500  -0.0312500   0.0937500), wk =   0.0029297
        k(   17) = (  -0.0312500   0.1562500   0.0312500), wk =   0.0029297
        k(   18) = (  -0.0937500   0.2187500  -0.0312500), wk =   0.0058594
        k(   19) = (  -0.1562500   0.2812500  -0.0937500), wk =   0.0058594
        k(   20) = (  -0.2187500   0.3437500  -0.1562500), wk =   0.0058594
        k(   21) = (  -0.2812500   0.4062500  -0.2187500), wk =   0.0058594
        k(   22) = (  -0.3437500   0.4687500  -0.2812500), wk =   0.0058594
        k(   23) = (  -0.4062500   0.5312500  -0.3437500), wk =   0.0058594
        k(   24) = (   0.5312500  -0.4062500   0.5937500), wk =   0.0058594
        k(   25) = (   0.4687500  -0.3437500   0.5312500), wk =   0.0058594
        k(   26) = (   0.4062500  -0.2812500   0.4687500), wk =   0.0058594
        k(   27) = (   0.3437500  -0.2187500   0.4062500), wk =   0.0058594
        k(   28) = (   0.2812500  -0.1562500   0.3437500), wk =   0.0058594
        k(   29) = (   0.2187500  -0.0937500   0.2812500), wk =   0.0058594
        k(   30) = (   0.1562500  -0.0312500   0.2187500), wk =   0.0058594
        k(   31) = (   0.0937500   0.0312500   0.1562500), wk =   0.0058594
        k(   32) = (  -0.0312500   0.2812500   0.0312500), wk =   0.0029297
        k(   33) = (  -0.0937500   0.3437500  -0.0312500), wk =   0.0058594
        k(   34) = (  -0.1562500   0.4062500  -0.0937500), wk =   0.0058594
        k(   35) = (  -0.2187500   0.4687500  -0.1562500), wk =   0.0058594
        k(   36) = (  -0.2812500   0.5312500  -0.2187500), wk =   0.0058594
        k(   37) = (  -0.3437500   0.5937500  -0.2812500), wk =   0.0058594
        k(   38) = (   0.5937500  -0.3437500   0.6562500), wk =   0.0058594
        k(   39) = (   0.5312500  -0.2812500   0.5937500), wk =   0.0058594
        k(   40) = (   0.4687500  -0.2187500   0.5312500), wk =   0.0058594
        k(   41) = (   0.4062500  -0.1562500   0.4687500), wk =   0.0058594
        k(   42) = (   0.3437500  -0.0937500   0.4062500), wk =   0.0058594
        k(   43) = (   0.2812500  -0.0312500   0.3437500), wk =   0.0058594
        k(   44) = (   0.2187500   0.0312500   0.2812500), wk =   0.0058594
        k(   45) = (   0.1562500   0.0937500   0.2187500), wk =   0.0058594
        k(   46) = (  -0.0312500   0.4062500   0.0312500), wk =   0.0029297
        k(   47) = (  -0.0937500   0.4687500  -0.0312500), wk =   0.0058594
        k(   48) = (  -0.1562500   0.5312500  -0.0937500), wk =   0.0058594
        k(   49) = (  -0.2187500   0.5937500  -0.1562500), wk =   0.0058594
        k(   50) = (  -0.2812500   0.6562500  -0.2187500), wk =   0.0058594
        k(   51) = (   0.6562500  -0.2812500   0.7187500), wk =   0.0058594
        k(   52) = (   0.5937500  -0.2187500   0.6562500), wk =   0.0058594
        k(   53) = (   0.5312500  -0.1562500   0.5937500), wk =   0.0058594
        k(   54) = (   0.4687500  -0.0937500   0.5312500), wk =   0.0058594
        k(   55) = (   0.4062500  -0.0312500   0.4687500), wk =   0.0058594
        k(   56) = (   0.3437500   0.0312500   0.4062500), wk =   0.0058594
        k(   57) = (   0.2812500   0.0937500   0.3437500), wk =   0.0058594
        k(   58) = (   0.2187500   0.1562500   0.2812500), wk =   0.0058594
        k(   59) = (  -0.0312500   0.5312500   0.0312500), wk =   0.0029297
        k(   60) = (  -0.0937500   0.5937500  -0.0312500), wk =   0.0058594
        k(   61) = (  -0.1562500   0.6562500  -0.0937500), wk =   0.0058594
        k(   62) = (  -0.2187500   0.7187500  -0.1562500), wk =   0.0058594
        k(   63) = (   0.7187500  -0.2187500   0.7812500), wk =   0.0058594
        k(   64) = (   0.6562500  -0.1562500   0.7187500), wk =   0.0058594
        k(   65) = (   0.5937500  -0.0937500   0.6562500), wk =   0.0058594
        k(   66) = (   0.5312500  -0.0312500   0.5937500), wk =   0.0058594
        k(   67) = (   0.4687500   0.0312500   0.5312500), wk =   0.0058594
        k(   68) = (   0.4062500   0.0937500   0.4687500), wk =   0.0058594
        k(   69) = (   0.3437500   0.1562500   0.4062500), wk =   0.0058594
        k(   70) = (   0.2812500   0.2187500   0.3437500), wk =   0.0058594
        k(   71) = (  -0.0312500   0.6562500   0.0312500), wk =   0.0029297
        k(   72) = (  -0.0937500   0.7187500  -0.0312500), wk =   0.0058594
        k(   73) = (  -0.1562500   0.7812500  -0.0937500), wk =   0.0058594
        k(   74) = (   0.7812500  -0.1562500   0.8437500), wk =   0.0058594
        k(   75) = (   0.7187500  -0.0937500   0.7812500), wk =   0.0058594
        k(   76) = (   0.6562500  -0.0312500   0.7187500), wk =   0.0058594
        k(   77) = (   0.5937500   0.0312500   0.6562500), wk =   0.0058594
        k(   78) = (   0.5312500   0.0937500   0.5937500), wk =   0.0058594
        k(   79) = (   0.4687500   0.1562500   0.5312500), wk =   0.0058594
        k(   80) = (   0.4062500   0.2187500   0.4687500), wk =   0.0058594
        k(   81) = (   0.3437500   0.2812500   0.4062500), wk =   0.0058594
        k(   82) = (  -0.0312500   0.7812500   0.0312500), wk =   0.0029297
        k(   83) = (  -0.0937500   0.8437500  -0.0312500), wk =   0.0058594
        k(   84) = (   0.8437500  -0.0937500   0.9062500), wk =   0.0058594
        k(   85) = (   0.7812500  -0.0312500   0.8437500), wk =   0.0058594
        k(   86) = (   0.7187500   0.0312500   0.7812500), wk =   0.0058594
        k(   87) = (   0.6562500   0.0937500   0.7187500), wk =   0.0058594
        k(   88) = (   0.5937500   0.1562500   0.6562500), wk =   0.0058594
        k(   89) = (   0.5312500   0.2187500   0.5937500), wk =   0.0058594
        k(   90) = (   0.4687500   0.2812500   0.5312500), wk =   0.0058594
        k(   91) = (   0.4062500   0.3437500   0.4687500), wk =   0.0058594
        k(   92) = (  -0.0312500   0.9062500   0.0312500), wk =   0.0029297
        k(   93) = (   0.9062500  -0.0312500   0.9687500), wk =   0.0058594
        k(   94) = (   0.8437500   0.0312500   0.9062500), wk =   0.0058594
        k(   95) = (   0.7812500   0.0937500   0.8437500), wk =   0.0058594
        k(   96) = (   0.7187500   0.1562500   0.7812500), wk =   0.0058594
        k(   97) = (   0.6562500   0.2187500   0.7187500), wk =   0.0058594
        k(   98) = (   0.5937500   0.2812500   0.6562500), wk =   0.0058594
        k(   99) = (   0.5312500   0.3437500   0.5937500), wk =   0.0058594
        k(  100) = (   0.4687500   0.4062500   0.5312500), wk =   0.0058594
        k(  101) = (  -0.0312500  -0.9687500   0.0312500), wk =   0.0029297
        k(  102) = (  -0.0937500  -0.9062500  -0.0312500), wk =   0.0058594
        k(  103) = (  -0.1562500  -0.8437500  -0.0937500), wk =   0.0058594
        k(  104) = (  -0.2187500  -0.7812500  -0.1562500), wk =   0.0058594
        k(  105) = (  -0.2812500  -0.7187500  -0.2187500), wk =   0.0058594
        k(  106) = (  -0.3437500  -0.6562500  -0.2812500), wk =   0.0058594
        k(  107) = (  -0.4062500  -0.5937500  -0.3437500), wk =   0.0058594
        k(  108) = (  -0.0312500  -0.8437500   0.0312500), wk =   0.0029297
        k(  109) = (  -0.0937500  -0.7812500  -0.0312500), wk =   0.0058594
        k(  110) = (  -0.1562500  -0.7187500  -0.0937500), wk =   0.0058594
        k(  111) = (  -0.2187500  -0.6562500  -0.1562500), wk =   0.0058594
        k(  112) = (  -0.2812500  -0.5937500  -0.2187500), wk =   0.0058594
        k(  113) = (  -0.3437500  -0.5312500  -0.2812500), wk =   0.0058594
        k(  114) = (  -0.0312500  -0.7187500   0.0312500), wk =   0.0029297
        k(  115) = (  -0.0937500  -0.6562500  -0.0312500), wk =   0.0058594
        k(  116) = (  -0.1562500  -0.5937500  -0.0937500), wk =   0.0058594
        k(  117) = (  -0.2187500  -0.5312500  -0.1562500), wk =   0.0058594
        k(  118) = (  -0.2812500  -0.4687500  -0.2187500), wk =   0.0058594
        k(  119) = (  -0.0312500  -0.5937500   0.0312500), wk =   0.0029297
        k(  120) = (  -0.0937500  -0.5312500  -0.0312500), wk =   0.0058594
        k(  121) = (  -0.1562500  -0.4687500  -0.0937500), wk =   0.0058594
        k(  122) = (  -0.2187500  -0.4062500  -0.1562500), wk =   0.0058594
        k(  123) = (  -0.0312500  -0.4687500   0.0312500), wk =   0.0029297
        k(  124) = (  -0.0937500  -0.4062500  -0.0312500), wk =   0.0058594
        k(  125) = (  -0.1562500  -0.3437500  -0.0937500), wk =   0.0058594
        k(  126) = (  -0.0312500  -0.3437500   0.0312500), wk =   0.0029297
        k(  127) = (  -0.0937500  -0.2812500  -0.0312500), wk =   0.0058594
        k(  128) = (  -0.0312500  -0.2187500   0.0312500), wk =   0.0029297
        k(  129) = (  -0.0937500   0.0937500   0.0937500), wk =   0.0009766
        k(  130) = (  -0.1562500   0.1562500   0.0312500), wk =   0.0029297
        k(  131) = (  -0.2187500   0.2187500  -0.0312500), wk =   0.0029297
        k(  132) = (  -0.2812500   0.2812500  -0.0937500), wk =   0.0029297
        k(  133) = (  -0.3437500   0.3437500  -0.1562500), wk =   0.0029297
        k(  134) = (  -0.4062500   0.4062500  -0.2187500), wk =   0.0029297
        k(  135) = (  -0.4687500   0.4687500  -0.2812500), wk =   0.0029297
        k(  136) = (   0.4687500  -0.4687500   0.6562500), wk =   0.0029297
        k(  137) = (   0.4062500  -0.4062500   0.5937500), wk =   0.0029297
        k(  138) = (   0.3437500  -0.3437500   0.5312500), wk =   0.0029297
        k(  139) = (   0.2812500  -0.2812500   0.4687500), wk =   0.0029297
        k(  140) = (   0.2187500  -0.2187500   0.4062500), wk =   0.0029297
        k(  141) = (   0.1562500  -0.1562500   0.3437500), wk =   0.0029297
        k(  142) = (   0.0937500  -0.0937500   0.2812500), wk =   0.0029297
        k(  143) = (  -0.0937500   0.2187500   0.0937500), wk =   0.0029297
        k(  144) = (  -0.1562500   0.2812500   0.0312500), wk =   0.0058594
        k(  145) = (  -0.2187500   0.3437500  -0.0312500), wk =   0.0058594
        k(  146) = (  -0.2812500   0.4062500  -0.0937500), wk =   0.0058594
        k(  147) = (  -0.3437500   0.4687500  -0.1562500), wk =   0.0058594
        k(  148) = (  -0.4062500   0.5312500  -0.2187500), wk =   0.0058594
        k(  149) = (   0.5312500  -0.4062500   0.7187500), wk =   0.0058594
        k(  150) = (   0.4687500  -0.3437500   0.6562500), wk =   0.0058594
        k(  151) = (   0.4062500  -0.2812500   0.5937500), wk =   0.0058594
        k(  152) = (   0.3437500  -0.2187500   0.5312500), wk =   0.0058594
        k(  153) = (   0.2812500  -0.1562500   0.4687500), wk =   0.0058594
        k(  154) = (   0.2187500  -0.0937500   0.4062500), wk =   0.0058594
        k(  155) = (   0.1562500  -0.0312500   0.3437500), wk =   0.0058594
        k(  156) = (  -0.0937500   0.3437500   0.0937500), wk =   0.0029297
        k(  157) = (  -0.1562500   0.4062500   0.0312500), wk =   0.0058594
        k(  158) = (  -0.2187500   0.4687500  -0.0312500), wk =   0.0058594
        k(  159) = (  -0.2812500   0.5312500  -0.0937500), wk =   0.0058594
        k(  160) = (  -0.3437500   0.5937500  -0.1562500), wk =   0.0058594
        k(  161) = (   0.5937500  -0.3437500   0.7812500), wk =   0.0058594
        k(  162) = (   0.5312500  -0.2812500   0.7187500), wk =   0.0058594
        k(  163) = (   0.4687500  -0.2187500   0.6562500), wk =   0.0058594
        k(  164) = (   0.4062500  -0.1562500   0.5937500), wk =   0.0058594
        k(  165) = (   0.3437500  -0.0937500   0.5312500), wk =   0.0058594
        k(  166) = (   0.2812500  -0.0312500   0.4687500), wk =   0.0058594
        k(  167) = (   0.2187500   0.0312500   0.4062500), wk =   0.0058594
        k(  168) = (  -0.0937500   0.4687500   0.0937500), wk =   0.0029297
        k(  169) = (  -0.1562500   0.5312500   0.0312500), wk =   0.0058594
        k(  170) = (  -0.2187500   0.5937500  -0.0312500), wk =   0.0058594
        k(  171) = (  -0.2812500   0.6562500  -0.0937500), wk =   0.0058594
        k(  172) = (   0.6562500  -0.2812500   0.8437500), wk =   0.0058594
        k(  173) = (   0.5937500  -0.2187500   0.7812500), wk =   0.0058594
        k(  174) = (   0.5312500  -0.1562500   0.7187500), wk =   0.0058594
        k(  175) = (   0.4687500  -0.0937500   0.6562500), wk =   0.0058594
        k(  176) = (   0.4062500  -0.0312500   0.5937500), wk =   0.0058594
        k(  177) = (   0.3437500   0.0312500   0.5312500), wk =   0.0058594
        k(  178) = (   0.2812500   0.0937500   0.4687500), wk =   0.0058594
        k(  179) = (  -0.0937500   0.5937500   0.0937500), wk =   0.0029297
        k(  180) = (  -0.1562500   0.6562500   0.0312500), wk =   0.0058594
        k(  181) = (  -0.2187500   0.7187500  -0.0312500), wk =   0.0058594
        k(  182) = (   0.7187500  -0.2187500   0.9062500), wk =   0.0058594
        k(  183) = (   0.6562500  -0.1562500   0.8437500), wk =   0.0058594
        k(  184) = (   0.5937500  -0.0937500   0.7812500), wk =   0.0058594
        k(  185) = (   0.5312500  -0.0312500   0.7187500), wk =   0.0058594
        k(  186) = (   0.4687500   0.0312500   0.6562500), wk =   0.0058594
        k(  187) = (   0.4062500   0.0937500   0.5937500), wk =   0.0058594
        k(  188) = (   0.3437500   0.1562500   0.5312500), wk =   0.0058594
        k(  189) = (  -0.0937500   0.7187500   0.0937500), wk =   0.0029297
        k(  190) = (  -0.1562500   0.7812500   0.0312500), wk =   0.0058594
        k(  191) = (   0.7812500  -0.1562500   0.9687500), wk =   0.0058594
        k(  192) = (   0.7187500  -0.0937500   0.9062500), wk =   0.0058594
        k(  193) = (   0.6562500  -0.0312500   0.8437500), wk =   0.0058594
        k(  194) = (   0.5937500   0.0312500   0.7812500), wk =   0.0058594
        k(  195) = (   0.5312500   0.0937500   0.7187500), wk =   0.0058594
        k(  196) = (   0.4687500   0.1562500   0.6562500), wk =   0.0058594
        k(  197) = (   0.4062500   0.2187500   0.5937500), wk =   0.0058594
        k(  198) = (  -0.0937500   0.8437500   0.0937500), wk =   0.0029297
        k(  199) = (   0.8437500  -0.0937500   1.0312500), wk =   0.0058594
        k(  200) = (   0.7812500  -0.0312500   0.9687500), wk =   0.0058594
        k(  201) = (   0.7187500   0.0312500   0.9062500), wk =   0.0058594
        k(  202) = (   0.6562500   0.0937500   0.8437500), wk =   0.0058594
        k(  203) = (   0.5937500   0.1562500   0.7812500), wk =   0.0058594
        k(  204) = (   0.5312500   0.2187500   0.7187500), wk =   0.0058594
        k(  205) = (   0.4687500   0.2812500   0.6562500), wk =   0.0058594
        k(  206) = (  -0.0937500  -1.0312500   0.0937500), wk =   0.0029297
        k(  207) = (  -0.1562500  -0.9687500   0.0312500), wk =   0.0058594
        k(  208) = (  -0.2187500  -0.9062500  -0.0312500), wk =   0.0058594
        k(  209) = (  -0.2812500  -0.8437500  -0.0937500), wk =   0.0058594
        k(  210) = (  -0.3437500  -0.7812500  -0.1562500), wk =   0.0058594
        k(  211) = (  -0.4062500  -0.7187500  -0.2187500), wk =   0.0058594
        k(  212) = (  -0.0937500  -0.9062500   0.0937500), wk =   0.0029297
        k(  213) = (  -0.1562500  -0.8437500   0.0312500), wk =   0.0058594
        k(  214) = (  -0.2187500  -0.7812500  -0.0312500), wk =   0.0058594
        k(  215) = (  -0.2812500  -0.7187500  -0.0937500), wk =   0.0058594
        k(  216) = (  -0.3437500  -0.6562500  -0.1562500), wk =   0.0058594
        k(  217) = (  -0.0937500  -0.7812500   0.0937500), wk =   0.0029297
        k(  218) = (  -0.1562500  -0.7187500   0.0312500), wk =   0.0058594
        k(  219) = (  -0.2187500  -0.6562500  -0.0312500), wk =   0.0058594
        k(  220) = (  -0.2812500  -0.5937500  -0.0937500), wk =   0.0058594
        k(  221) = (  -0.0937500  -0.6562500   0.0937500), wk =   0.0029297
        k(  222) = (  -0.1562500  -0.5937500   0.0312500), wk =   0.0058594
        k(  223) = (  -0.2187500  -0.5312500  -0.0312500), wk =   0.0058594
        k(  224) = (  -0.0937500  -0.5312500   0.0937500), wk =   0.0029297
        k(  225) = (  -0.1562500  -0.4687500   0.0312500), wk =   0.0058594
        k(  226) = (  -0.0937500  -0.4062500   0.0937500), wk =   0.0029297
        k(  227) = (  -0.1562500   0.1562500   0.1562500), wk =   0.0009766
        k(  228) = (  -0.2187500   0.2187500   0.0937500), wk =   0.0029297
        k(  229) = (  -0.2812500   0.2812500   0.0312500), wk =   0.0029297
        k(  230) = (  -0.3437500   0.3437500  -0.0312500), wk =   0.0029297
        k(  231) = (  -0.4062500   0.4062500  -0.0937500), wk =   0.0029297
        k(  232) = (  -0.4687500   0.4687500  -0.1562500), wk =   0.0029297
        k(  233) = (   0.4687500  -0.4687500   0.7812500), wk =   0.0029297
        k(  234) = (   0.4062500  -0.4062500   0.7187500), wk =   0.0029297
        k(  235) = (   0.3437500  -0.3437500   0.6562500), wk =   0.0029297
        k(  236) = (   0.2812500  -0.2812500   0.5937500), wk =   0.0029297
        k(  237) = (   0.2187500  -0.2187500   0.5312500), wk =   0.0029297
        k(  238) = (   0.1562500  -0.1562500   0.4687500), wk =   0.0029297
        k(  239) = (  -0.1562500   0.2812500   0.1562500), wk =   0.0029297
        k(  240) = (  -0.2187500   0.3437500   0.0937500), wk =   0.0058594
        k(  241) = (  -0.2812500   0.4062500   0.0312500), wk =   0.0058594
        k(  242) = (  -0.3437500   0.4687500  -0.0312500), wk =   0.0058594
        k(  243) = (  -0.4062500   0.5312500  -0.0937500), wk =   0.0058594
        k(  244) = (   0.5312500  -0.4062500   0.8437500), wk =   0.0058594
        k(  245) = (   0.4687500  -0.3437500   0.7812500), wk =   0.0058594
        k(  246) = (   0.4062500  -0.2812500   0.7187500), wk =   0.0058594
        k(  247) = (   0.3437500  -0.2187500   0.6562500), wk =   0.0058594
        k(  248) = (   0.2812500  -0.1562500   0.5937500), wk =   0.0058594
        k(  249) = (   0.2187500  -0.0937500   0.5312500), wk =   0.0058594
        k(  250) = (  -0.1562500   0.4062500   0.1562500), wk =   0.0029297
        k(  251) = (  -0.2187500   0.4687500   0.0937500), wk =   0.0058594
        k(  252) = (  -0.2812500   0.5312500   0.0312500), wk =   0.0058594
        k(  253) = (  -0.3437500   0.5937500  -0.0312500), wk =   0.0058594
        k(  254) = (   0.5937500  -0.3437500   0.9062500), wk =   0.0058594
        k(  255) = (   0.5312500  -0.2812500   0.8437500), wk =   0.0058594
        k(  256) = (   0.4687500  -0.2187500   0.7812500), wk =   0.0058594
        k(  257) = (   0.4062500  -0.1562500   0.7187500), wk =   0.0058594
        k(  258) = (   0.3437500  -0.0937500   0.6562500), wk =   0.0058594
        k(  259) = (   0.2812500  -0.0312500   0.5937500), wk =   0.0058594
        k(  260) = (  -0.1562500   0.5312500   0.1562500), wk =   0.0029297
        k(  261) = (  -0.2187500   0.5937500   0.0937500), wk =   0.0058594
        k(  262) = (  -0.2812500   0.6562500   0.0312500), wk =   0.0058594
        k(  263) = (   0.6562500  -0.2812500   0.9687500), wk =   0.0058594
        k(  264) = (   0.5937500  -0.2187500   0.9062500), wk =   0.0058594
        k(  265) = (   0.5312500  -0.1562500   0.8437500), wk =   0.0058594
        k(  266) = (   0.4687500  -0.0937500   0.7812500), wk =   0.0058594
        k(  267) = (   0.4062500  -0.0312500   0.7187500), wk =   0.0058594
        k(  268) = (   0.3437500   0.0312500   0.6562500), wk =   0.0058594
        k(  269) = (  -0.1562500   0.6562500   0.1562500), wk =   0.0029297
        k(  270) = (  -0.2187500   0.7187500   0.0937500), wk =   0.0058594
        k(  271) = (   0.7187500  -0.2187500   1.0312500), wk =   0.0058594
        k(  272) = (   0.6562500  -0.1562500   0.9687500), wk =   0.0058594
        k(  273) = (   0.5937500  -0.0937500   0.9062500), wk =   0.0058594
        k(  274) = (   0.5312500  -0.0312500   0.8437500), wk =   0.0058594
        k(  275) = (   0.4687500   0.0312500   0.7812500), wk =   0.0058594
        k(  276) = (   0.4062500   0.0937500   0.7187500), wk =   0.0058594
        k(  277) = (  -0.1562500   0.7812500   0.1562500), wk =   0.0029297
        k(  278) = (   0.7812500  -0.1562500   1.0937500), wk =   0.0058594
        k(  279) = (   0.7187500  -0.0937500   1.0312500), wk =   0.0058594
        k(  280) = (   0.6562500  -0.0312500   0.9687500), wk =   0.0058594
        k(  281) = (   0.5937500   0.0312500   0.9062500), wk =   0.0058594
        k(  282) = (   0.5312500   0.0937500   0.8437500), wk =   0.0058594
        k(  283) = (   0.4687500   0.1562500   0.7812500), wk =   0.0058594
        k(  284) = (  -0.1562500  -1.0937500   0.1562500), wk =   0.0029297
        k(  285) = (  -0.2187500  -1.0312500   0.0937500), wk =   0.0058594
        k(  286) = (  -0.2812500  -0.9687500   0.0312500), wk =   0.0058594
        k(  287) = (  -0.3437500  -0.9062500  -0.0312500), wk =   0.0058594
        k(  288) = (  -0.4062500  -0.8437500  -0.0937500), wk =   0.0058594
        k(  289) = (  -0.1562500  -0.9687500   0.1562500), wk =   0.0029297
        k(  290) = (  -0.2187500  -0.9062500   0.0937500), wk =   0.0058594
        k(  291) = (  -0.2812500  -0.8437500   0.0312500), wk =   0.0058594
        k(  292) = (  -0.3437500  -0.7812500  -0.0312500), wk =   0.0058594
        k(  293) = (  -0.1562500  -0.8437500   0.1562500), wk =   0.0029297
        k(  294) = (  -0.2187500  -0.7812500   0.0937500), wk =   0.0058594
        k(  295) = (  -0.2812500  -0.7187500   0.0312500), wk =   0.0058594
        k(  296) = (  -0.1562500  -0.7187500   0.1562500), wk =   0.0029297
        k(  297) = (  -0.2187500  -0.6562500   0.0937500), wk =   0.0058594
        k(  298) = (  -0.1562500  -0.5937500   0.1562500), wk =   0.0029297
        k(  299) = (  -0.2187500   0.2187500   0.2187500), wk =   0.0009766
        k(  300) = (  -0.2812500   0.2812500   0.1562500), wk =   0.0029297
        k(  301) = (  -0.3437500   0.3437500   0.0937500), wk =   0.0029297
        k(  302) = (  -0.4062500   0.4062500   0.0312500), wk =   0.0029297
        k(  303) = (  -0.4687500   0.4687500  -0.0312500), wk =   0.0029297
        k(  304) = (   0.4687500  -0.4687500   0.9062500), wk =   0.0029297
        k(  305) = (   0.4062500  -0.4062500   0.8437500), wk =   0.0029297
        k(  306) = (   0.3437500  -0.3437500   0.7812500), wk =   0.0029297
        k(  307) = (   0.2812500  -0.2812500   0.7187500), wk =   0.0029297
        k(  308) = (   0.2187500  -0.2187500   0.6562500), wk =   0.0029297
        k(  309) = (  -0.2187500   0.3437500   0.2187500), wk =   0.0029297
        k(  310) = (  -0.2812500   0.4062500   0.1562500), wk =   0.0058594
        k(  311) = (  -0.3437500   0.4687500   0.0937500), wk =   0.0058594
        k(  312) = (  -0.4062500   0.5312500   0.0312500), wk =   0.0058594
        k(  313) = (   0.5312500  -0.4062500   0.9687500), wk =   0.0058594
        k(  314) = (   0.4687500  -0.3437500   0.9062500), wk =   0.0058594
        k(  315) = (   0.4062500  -0.2812500   0.8437500), wk =   0.0058594
        k(  316) = (   0.3437500  -0.2187500   0.7812500), wk =   0.0058594
        k(  317) = (   0.2812500  -0.1562500   0.7187500), wk =   0.0058594
        k(  318) = (  -0.2187500   0.4687500   0.2187500), wk =   0.0029297
        k(  319) = (  -0.2812500   0.5312500   0.1562500), wk =   0.0058594
        k(  320) = (  -0.3437500   0.5937500   0.0937500), wk =   0.0058594
        k(  321) = (   0.5937500  -0.3437500   1.0312500), wk =   0.0058594
        k(  322) = (   0.5312500  -0.2812500   0.9687500), wk =   0.0058594
        k(  323) = (   0.4687500  -0.2187500   0.9062500), wk =   0.0058594
        k(  324) = (   0.4062500  -0.1562500   0.8437500), wk =   0.0058594
        k(  325) = (   0.3437500  -0.0937500   0.7812500), wk =   0.0058594
        k(  326) = (  -0.2187500   0.5937500   0.2187500), wk =   0.0029297
        k(  327) = (  -0.2812500   0.6562500   0.1562500), wk =   0.0058594
        k(  328) = (   0.6562500  -0.2812500   1.0937500), wk =   0.0058594
        k(  329) = (   0.5937500  -0.2187500   1.0312500), wk =   0.0058594
        k(  330) = (   0.5312500  -0.1562500   0.9687500), wk =   0.0058594
        k(  331) = (   0.4687500  -0.0937500   0.9062500), wk =   0.0058594
        k(  332) = (   0.4062500  -0.0312500   0.8437500), wk =   0.0058594
        k(  333) = (  -0.2187500   0.7187500   0.2187500), wk =   0.0029297
        k(  334) = (   0.7187500  -0.2187500   1.1562500), wk =   0.0058594
        k(  335) = (   0.6562500  -0.1562500   1.0937500), wk =   0.0058594
        k(  336) = (   0.5937500  -0.0937500   1.0312500), wk =   0.0058594
        k(  337) = (   0.5312500  -0.0312500   0.9687500), wk =   0.0058594
        k(  338) = (   0.4687500   0.0312500   0.9062500), wk =   0.0058594
        k(  339) = (  -0.2187500  -1.1562500   0.2187500), wk =   0.0029297
        k(  340) = (  -0.2812500  -1.0937500   0.1562500), wk =   0.0058594
        k(  341) = (  -0.3437500  -1.0312500   0.0937500), wk =   0.0058594
        k(  342) = (  -0.4062500  -0.9687500   0.0312500), wk =   0.0058594
        k(  343) = (  -0.2187500  -1.0312500   0.2187500), wk =   0.0029297
        k(  344) = (  -0.2812500  -0.9687500   0.1562500), wk =   0.0058594
        k(  345) = (  -0.3437500  -0.9062500   0.0937500), wk =   0.0058594
        k(  346) = (  -0.2187500  -0.9062500   0.2187500), wk =   0.0029297
        k(  347) = (  -0.2812500  -0.8437500   0.1562500), wk =   0.0058594
        k(  348) = (  -0.2187500  -0.7812500   0.2187500), wk =   0.0029297
        k(  349) = (  -0.2812500   0.2812500   0.2812500), wk =   0.0009766
        k(  350) = (  -0.3437500   0.3437500   0.2187500), wk =   0.0029297
        k(  351) = (  -0.4062500   0.4062500   0.1562500), wk =   0.0029297
        k(  352) = (  -0.4687500   0.4687500   0.0937500), wk =   0.0029297
        k(  353) = (   0.4687500  -0.4687500   1.0312500), wk =   0.0029297
        k(  354) = (   0.4062500  -0.4062500   0.9687500), wk =   0.0029297
        k(  355) = (   0.3437500  -0.3437500   0.9062500), wk =   0.0029297
        k(  356) = (   0.2812500  -0.2812500   0.8437500), wk =   0.0029297
        k(  357) = (  -0.2812500   0.4062500   0.2812500), wk =   0.0029297
        k(  358) = (  -0.3437500   0.4687500   0.2187500), wk =   0.0058594
        k(  359) = (  -0.4062500   0.5312500   0.1562500), wk =   0.0058594
        k(  360) = (   0.5312500  -0.4062500   1.0937500), wk =   0.0058594
        k(  361) = (   0.4687500  -0.3437500   1.0312500), wk =   0.0058594
        k(  362) = (   0.4062500  -0.2812500   0.9687500), wk =   0.0058594
        k(  363) = (   0.3437500  -0.2187500   0.9062500), wk =   0.0058594
        k(  364) = (  -0.2812500   0.5312500   0.2812500), wk =   0.0029297
        k(  365) = (  -0.3437500   0.5937500   0.2187500), wk =   0.0058594
        k(  366) = (   0.5937500  -0.3437500   1.1562500), wk =   0.0058594
        k(  367) = (   0.5312500  -0.2812500   1.0937500), wk =   0.0058594
        k(  368) = (   0.4687500  -0.2187500   1.0312500), wk =   0.0058594
        k(  369) = (   0.4062500  -0.1562500   0.9687500), wk =   0.0058594
        k(  370) = (  -0.2812500   0.6562500   0.2812500), wk =   0.0029297
        k(  371) = (   0.6562500  -0.2812500   1.2187500), wk =   0.0058594
        k(  372) = (   0.5937500  -0.2187500   1.1562500), wk =   0.0058594
        k(  373) = (   0.5312500  -0.1562500   1.0937500), wk =   0.0058594
        k(  374) = (   0.4687500  -0.0937500   1.0312500), wk =   0.0058594
        k(  375) = (  -0.2812500  -1.2187500   0.2812500), wk =   0.0029297
        k(  376) = (  -0.3437500  -1.1562500   0.2187500), wk =   0.0058594
        k(  377) = (  -0.4062500  -1.0937500   0.1562500), wk =   0.0058594
        k(  378) = (  -0.2812500  -1.0937500   0.2812500), wk =   0.0029297
        k(  379) = (  -0.3437500  -1.0312500   0.2187500), wk =   0.0058594
        k(  380) = (  -0.2812500  -0.9687500   0.2812500), wk =   0.0029297
        k(  381) = (  -0.3437500   0.3437500   0.3437500), wk =   0.0009766
        k(  382) = (  -0.4062500   0.4062500   0.2812500), wk =   0.0029297
        k(  383) = (  -0.4687500   0.4687500   0.2187500), wk =   0.0029297
        k(  384) = (   0.4687500  -0.4687500   1.1562500), wk =   0.0029297
        k(  385) = (   0.4062500  -0.4062500   1.0937500), wk =   0.0029297
        k(  386) = (   0.3437500  -0.3437500   1.0312500), wk =   0.0029297
        k(  387) = (  -0.3437500   0.4687500   0.3437500), wk =   0.0029297
        k(  388) = (  -0.4062500   0.5312500   0.2812500), wk =   0.0058594
        k(  389) = (   0.5312500  -0.4062500   1.2187500), wk =   0.0058594
        k(  390) = (   0.4687500  -0.3437500   1.1562500), wk =   0.0058594
        k(  391) = (   0.4062500  -0.2812500   1.0937500), wk =   0.0058594
        k(  392) = (  -0.3437500   0.5937500   0.3437500), wk =   0.0029297
        k(  393) = (   0.5937500  -0.3437500   1.2812500), wk =   0.0058594
        k(  394) = (   0.5312500  -0.2812500   1.2187500), wk =   0.0058594
        k(  395) = (   0.4687500  -0.2187500   1.1562500), wk =   0.0058594
        k(  396) = (  -0.3437500  -1.2812500   0.3437500), wk =   0.0029297
        k(  397) = (  -0.4062500  -1.2187500   0.2812500), wk =   0.0058594
        k(  398) = (  -0.3437500  -1.1562500   0.3437500), wk =   0.0029297
        k(  399) = (  -0.4062500   0.4062500   0.4062500), wk =   0.0009766
        k(  400) = (  -0.4687500   0.4687500   0.3437500), wk =   0.0029297
        k(  401) = (   0.4687500  -0.4687500   1.2812500), wk =   0.0029297
        k(  402) = (   0.4062500  -0.4062500   1.2187500), wk =   0.0029297
        k(  403) = (  -0.4062500   0.5312500   0.4062500), wk =   0.0029297
        k(  404) = (   0.5312500  -0.4062500   1.3437500), wk =   0.0058594
        k(  405) = (   0.4687500  -0.3437500   1.2812500), wk =   0.0058594
        k(  406) = (  -0.4062500  -1.3437500   0.4062500), wk =   0.0029297
        k(  407) = (  -0.4687500   0.4687500   0.4687500), wk =   0.0009766
        k(  408) = (   0.4687500  -0.4687500   1.4062500), wk =   0.0029297

                       cryst. coord.
        k(    1) = (   0.0312500   0.0312500   0.0312500), wk =   0.0009766
        k(    2) = (   0.0312500   0.0312500   0.0937500), wk =   0.0029297
        k(    3) = (   0.0312500   0.0312500   0.1562500), wk =   0.0029297
        k(    4) = (   0.0312500   0.0312500   0.2187500), wk =   0.0029297
        k(    5) = (   0.0312500   0.0312500   0.2812500), wk =   0.0029297
        k(    6) = (   0.0312500   0.0312500   0.3437500), wk =   0.0029297
        k(    7) = (   0.0312500   0.0312500   0.4062500), wk =   0.0029297
        k(    8) = (   0.0312500   0.0312500   0.4687500), wk =   0.0029297
        k(    9) = (   0.0312500   0.0312500  -0.4687500), wk =   0.0029297
        k(   10) = (   0.0312500   0.0312500  -0.4062500), wk =   0.0029297
        k(   11) = (   0.0312500   0.0312500  -0.3437500), wk =   0.0029297
        k(   12) = (   0.0312500   0.0312500  -0.2812500), wk =   0.0029297
        k(   13) = (   0.0312500   0.0312500  -0.2187500), wk =   0.0029297
        k(   14) = (   0.0312500   0.0312500  -0.1562500), wk =   0.0029297
        k(   15) = (   0.0312500   0.0312500  -0.0937500), wk =   0.0029297
        k(   16) = (   0.0312500   0.0312500  -0.0312500), wk =   0.0029297
        k(   17) = (   0.0312500   0.0937500   0.0937500), wk =   0.0029297
        k(   18) = (   0.0312500   0.0937500   0.1562500), wk =   0.0058594
        k(   19) = (   0.0312500   0.0937500   0.2187500), wk =   0.0058594
        k(   20) = (   0.0312500   0.0937500   0.2812500), wk =   0.0058594
        k(   21) = (   0.0312500   0.0937500   0.3437500), wk =   0.0058594
        k(   22) = (   0.0312500   0.0937500   0.4062500), wk =   0.0058594
        k(   23) = (   0.0312500   0.0937500   0.4687500), wk =   0.0058594
        k(   24) = (   0.0312500   0.0937500  -0.4687500), wk =   0.0058594
        k(   25) = (   0.0312500   0.0937500  -0.4062500), wk =   0.0058594
        k(   26) = (   0.0312500   0.0937500  -0.3437500), wk =   0.0058594
        k(   27) = (   0.0312500   0.0937500  -0.2812500), wk =   0.0058594
        k(   28) = (   0.0312500   0.0937500  -0.2187500), wk =   0.0058594
        k(   29) = (   0.0312500   0.0937500  -0.1562500), wk =   0.0058594
        k(   30) = (   0.0312500   0.0937500  -0.0937500), wk =   0.0058594
        k(   31) = (   0.0312500   0.0937500  -0.0312500), wk =   0.0058594
        k(   32) = (   0.0312500   0.1562500   0.1562500), wk =   0.0029297
        k(   33) = (   0.0312500   0.1562500   0.2187500), wk =   0.0058594
        k(   34) = (   0.0312500   0.1562500   0.2812500), wk =   0.0058594
        k(   35) = (   0.0312500   0.1562500   0.3437500), wk =   0.0058594
        k(   36) = (   0.0312500   0.1562500   0.4062500), wk =   0.0058594
        k(   37) = (   0.0312500   0.1562500   0.4687500), wk =   0.0058594
        k(   38) = (   0.0312500   0.1562500  -0.4687500), wk =   0.0058594
        k(   39) = (   0.0312500   0.1562500  -0.4062500), wk =   0.0058594
        k(   40) = (   0.0312500   0.1562500  -0.3437500), wk =   0.0058594
        k(   41) = (   0.0312500   0.1562500  -0.2812500), wk =   0.0058594
        k(   42) = (   0.0312500   0.1562500  -0.2187500), wk =   0.0058594
        k(   43) = (   0.0312500   0.1562500  -0.1562500), wk =   0.0058594
        k(   44) = (   0.0312500   0.1562500  -0.0937500), wk =   0.0058594
        k(   45) = (   0.0312500   0.1562500  -0.0312500), wk =   0.0058594
        k(   46) = (   0.0312500   0.2187500   0.2187500), wk =   0.0029297
        k(   47) = (   0.0312500   0.2187500   0.2812500), wk =   0.0058594
        k(   48) = (   0.0312500   0.2187500   0.3437500), wk =   0.0058594
        k(   49) = (   0.0312500   0.2187500   0.4062500), wk =   0.0058594
        k(   50) = (   0.0312500   0.2187500   0.4687500), wk =   0.0058594
        k(   51) = (   0.0312500   0.2187500  -0.4687500), wk =   0.0058594
        k(   52) = (   0.0312500   0.2187500  -0.4062500), wk =   0.0058594
        k(   53) = (   0.0312500   0.2187500  -0.3437500), wk =   0.0058594
        k(   54) = (   0.0312500   0.2187500  -0.2812500), wk =   0.0058594
        k(   55) = (   0.0312500   0.2187500  -0.2187500), wk =   0.0058594
        k(   56) = (   0.0312500   0.2187500  -0.1562500), wk =   0.0058594
        k(   57) = (   0.0312500   0.2187500  -0.0937500), wk =   0.0058594
        k(   58) = (   0.0312500   0.2187500  -0.0312500), wk =   0.0058594
        k(   59) = (   0.0312500   0.2812500   0.2812500), wk =   0.0029297
        k(   60) = (   0.0312500   0.2812500   0.3437500), wk =   0.0058594
        k(   61) = (   0.0312500   0.2812500   0.4062500), wk =   0.0058594
        k(   62) = (   0.0312500   0.2812500   0.4687500), wk =   0.0058594
        k(   63) = (   0.0312500   0.2812500  -0.4687500), wk =   0.0058594
        k(   64) = (   0.0312500   0.2812500  -0.4062500), wk =   0.0058594
        k(   65) = (   0.0312500   0.2812500  -0.3437500), wk =   0.0058594
        k(   66) = (   0.0312500   0.2812500  -0.2812500), wk =   0.0058594
        k(   67) = (   0.0312500   0.2812500  -0.2187500), wk =   0.0058594
        k(   68) = (   0.0312500   0.2812500  -0.1562500), wk =   0.0058594
        k(   69) = (   0.0312500   0.2812500  -0.0937500), wk =   0.0058594
        k(   70) = (   0.0312500   0.2812500  -0.0312500), wk =   0.0058594
        k(   71) = (   0.0312500   0.3437500   0.3437500), wk =   0.0029297
        k(   72) = (   0.0312500   0.3437500   0.4062500), wk =   0.0058594
        k(   73) = (   0.0312500   0.3437500   0.4687500), wk =   0.0058594
        k(   74) = (   0.0312500   0.3437500  -0.4687500), wk =   0.0058594
        k(   75) = (   0.0312500   0.3437500  -0.4062500), wk =   0.0058594
        k(   76) = (   0.0312500   0.3437500  -0.3437500), wk =   0.0058594
        k(   77) = (   0.0312500   0.3437500  -0.2812500), wk =   0.0058594
        k(   78) = (   0.0312500   0.3437500  -0.2187500), wk =   0.0058594
        k(   79) = (   0.0312500   0.3437500  -0.1562500), wk =   0.0058594
        k(   80) = (   0.0312500   0.3437500  -0.0937500), wk =   0.0058594
        k(   81) = (   0.0312500   0.3437500  -0.0312500), wk =   0.0058594
        k(   82) = (   0.0312500   0.4062500   0.4062500), wk =   0.0029297
        k(   83) = (   0.0312500   0.4062500   0.4687500), wk =   0.0058594
        k(   84) = (   0.0312500   0.4062500  -0.4687500), wk =   0.0058594
        k(   85) = (   0.0312500   0.4062500  -0.4062500), wk =   0.0058594
        k(   86) = (   0.0312500   0.4062500  -0.3437500), wk =   0.0058594
        k(   87) = (   0.0312500   0.4062500  -0.2812500), wk =   0.0058594
        k(   88) = (   0.0312500   0.4062500  -0.2187500), wk =   0.0058594
        k(   89) = (   0.0312500   0.4062500  -0.1562500), wk =   0.0058594
        k(   90) = (   0.0312500   0.4062500  -0.0937500), wk =   0.0058594
        k(   91) = (   0.0312500   0.4062500  -0.0312500), wk =   0.0058594
        k(   92) = (   0.0312500   0.4687500   0.4687500), wk =   0.0029297
        k(   93) = (   0.0312500   0.4687500  -0.4687500), wk =   0.0058594
        k(   94) = (   0.0312500   0.4687500  -0.4062500), wk =   0.0058594
        k(   95) = (   0.0312500   0.4687500  -0.3437500), wk =   0.0058594
        k(   96) = (   0.0312500   0.4687500  -0.2812500), wk =   0.0058594
        k(   97) = (   0.0312500   0.4687500  -0.2187500), wk =   0.0058594
        k(   98) = (   0.0312500   0.4687500  -0.1562500), wk =   0.0058594
        k(   99) = (   0.0312500   0.4687500  -0.0937500), wk =   0.0058594
        k(  100) = (   0.0312500   0.4687500  -0.0312500), wk =   0.0058594
        k(  101) = (   0.0312500  -0.4687500  -0.4687500), wk =   0.0029297
        k(  102) = (   0.0312500  -0.4687500  -0.4062500), wk =   0.0058594
        k(  103) = (   0.0312500  -0.4687500  -0.3437500), wk =   0.0058594
        k(  104) = (   0.0312500  -0.4687500  -0.2812500), wk =   0.0058594
        k(  105) = (   0.0312500  -0.4687500  -0.2187500), wk =   0.0058594
        k(  106) = (   0.0312500  -0.4687500  -0.1562500), wk =   0.0058594
        k(  107) = (   0.0312500  -0.4687500  -0.0937500), wk =   0.0058594
        k(  108) = (   0.0312500  -0.4062500  -0.4062500), wk =   0.0029297
        k(  109) = (   0.0312500  -0.4062500  -0.3437500), wk =   0.0058594
        k(  110) = (   0.0312500  -0.4062500  -0.2812500), wk =   0.0058594
        k(  111) = (   0.0312500  -0.4062500  -0.2187500), wk =   0.0058594
        k(  112) = (   0.0312500  -0.4062500  -0.1562500), wk =   0.0058594
        k(  113) = (   0.0312500  -0.4062500  -0.0937500), wk =   0.0058594
        k(  114) = (   0.0312500  -0.3437500  -0.3437500), wk =   0.0029297
        k(  115) = (   0.0312500  -0.3437500  -0.2812500), wk =   0.0058594
        k(  116) = (   0.0312500  -0.3437500  -0.2187500), wk =   0.0058594
        k(  117) = (   0.0312500  -0.3437500  -0.1562500), wk =   0.0058594
        k(  118) = (   0.0312500  -0.3437500  -0.0937500), wk =   0.0058594
        k(  119) = (   0.0312500  -0.2812500  -0.2812500), wk =   0.0029297
        k(  120) = (   0.0312500  -0.2812500  -0.2187500), wk =   0.0058594
        k(  121) = (   0.0312500  -0.2812500  -0.1562500), wk =   0.0058594
        k(  122) = (   0.0312500  -0.2812500  -0.0937500), wk =   0.0058594
        k(  123) = (   0.0312500  -0.2187500  -0.2187500), wk =   0.0029297
        k(  124) = (   0.0312500  -0.2187500  -0.1562500), wk =   0.0058594
        k(  125) = (   0.0312500  -0.2187500  -0.0937500), wk =   0.0058594
        k(  126) = (   0.0312500  -0.1562500  -0.1562500), wk =   0.0029297
        k(  127) = (   0.0312500  -0.1562500  -0.0937500), wk =   0.0058594
        k(  128) = (   0.0312500  -0.0937500  -0.0937500), wk =   0.0029297
        k(  129) = (   0.0937500   0.0937500   0.0937500), wk =   0.0009766
        k(  130) = (   0.0937500   0.0937500   0.1562500), wk =   0.0029297
        k(  131) = (   0.0937500   0.0937500   0.2187500), wk =   0.0029297
        k(  132) = (   0.0937500   0.0937500   0.2812500), wk =   0.0029297
        k(  133) = (   0.0937500   0.0937500   0.3437500), wk =   0.0029297
        k(  134) = (   0.0937500   0.0937500   0.4062500), wk =   0.0029297
        k(  135) = (   0.0937500   0.0937500   0.4687500), wk =   0.0029297
        k(  136) = (   0.0937500   0.0937500  -0.4687500), wk =   0.0029297
        k(  137) = (   0.0937500   0.0937500  -0.4062500), wk =   0.0029297
        k(  138) = (   0.0937500   0.0937500  -0.3437500), wk =   0.0029297
        k(  139) = (   0.0937500   0.0937500  -0.2812500), wk =   0.0029297
        k(  140) = (   0.0937500   0.0937500  -0.2187500), wk =   0.0029297
        k(  141) = (   0.0937500   0.0937500  -0.1562500), wk =   0.0029297
        k(  142) = (   0.0937500   0.0937500  -0.0937500), wk =   0.0029297
        k(  143) = (   0.0937500   0.1562500   0.1562500), wk =   0.0029297
        k(  144) = (   0.0937500   0.1562500   0.2187500), wk =   0.0058594
        k(  145) = (   0.0937500   0.1562500   0.2812500), wk =   0.0058594
        k(  146) = (   0.0937500   0.1562500   0.3437500), wk =   0.0058594
        k(  147) = (   0.0937500   0.1562500   0.4062500), wk =   0.0058594
        k(  148) = (   0.0937500   0.1562500   0.4687500), wk =   0.0058594
        k(  149) = (   0.0937500   0.1562500  -0.4687500), wk =   0.0058594
        k(  150) = (   0.0937500   0.1562500  -0.4062500), wk =   0.0058594
        k(  151) = (   0.0937500   0.1562500  -0.3437500), wk =   0.0058594
        k(  152) = (   0.0937500   0.1562500  -0.2812500), wk =   0.0058594
        k(  153) = (   0.0937500   0.1562500  -0.2187500), wk =   0.0058594
        k(  154) = (   0.0937500   0.1562500  -0.1562500), wk =   0.0058594
        k(  155) = (   0.0937500   0.1562500  -0.0937500), wk =   0.0058594
        k(  156) = (   0.0937500   0.2187500   0.2187500), wk =   0.0029297
        k(  157) = (   0.0937500   0.2187500   0.2812500), wk =   0.0058594
        k(  158) = (   0.0937500   0.2187500   0.3437500), wk =   0.0058594
        k(  159) = (   0.0937500   0.2187500   0.4062500), wk =   0.0058594
        k(  160) = (   0.0937500   0.2187500   0.4687500), wk =   0.0058594
        k(  161) = (   0.0937500   0.2187500  -0.4687500), wk =   0.0058594
        k(  162) = (   0.0937500   0.2187500  -0.4062500), wk =   0.0058594
        k(  163) = (   0.0937500   0.2187500  -0.3437500), wk =   0.0058594
        k(  164) = (   0.0937500   0.2187500  -0.2812500), wk =   0.0058594
        k(  165) = (   0.0937500   0.2187500  -0.2187500), wk =   0.0058594
        k(  166) = (   0.0937500   0.2187500  -0.1562500), wk =   0.0058594
        k(  167) = (   0.0937500   0.2187500  -0.0937500), wk =   0.0058594
        k(  168) = (   0.0937500   0.2812500   0.2812500), wk =   0.0029297
        k(  169) = (   0.0937500   0.2812500   0.3437500), wk =   0.0058594
        k(  170) = (   0.0937500   0.2812500   0.4062500), wk =   0.0058594
        k(  171) = (   0.0937500   0.2812500   0.4687500), wk =   0.0058594
        k(  172) = (   0.0937500   0.2812500  -0.4687500), wk =   0.0058594
        k(  173) = (   0.0937500   0.2812500  -0.4062500), wk =   0.0058594
        k(  174) = (   0.0937500   0.2812500  -0.3437500), wk =   0.0058594
        k(  175) = (   0.0937500   0.2812500  -0.2812500), wk =   0.0058594
        k(  176) = (   0.0937500   0.2812500  -0.2187500), wk =   0.0058594
        k(  177) = (   0.0937500   0.2812500  -0.1562500), wk =   0.0058594
        k(  178) = (   0.0937500   0.2812500  -0.0937500), wk =   0.0058594
        k(  179) = (   0.0937500   0.3437500   0.3437500), wk =   0.0029297
        k(  180) = (   0.0937500   0.3437500   0.4062500), wk =   0.0058594
        k(  181) = (   0.0937500   0.3437500   0.4687500), wk =   0.0058594
        k(  182) = (   0.0937500   0.3437500  -0.4687500), wk =   0.0058594
        k(  183) = (   0.0937500   0.3437500  -0.4062500), wk =   0.0058594
        k(  184) = (   0.0937500   0.3437500  -0.3437500), wk =   0.0058594
        k(  185) = (   0.0937500   0.3437500  -0.2812500), wk =   0.0058594
        k(  186) = (   0.0937500   0.3437500  -0.2187500), wk =   0.0058594
        k(  187) = (   0.0937500   0.3437500  -0.1562500), wk =   0.0058594
        k(  188) = (   0.0937500   0.3437500  -0.0937500), wk =   0.0058594
        k(  189) = (   0.0937500   0.4062500   0.4062500), wk =   0.0029297
        k(  190) = (   0.0937500   0.4062500   0.4687500), wk =   0.0058594
        k(  191) = (   0.0937500   0.4062500  -0.4687500), wk =   0.0058594
        k(  192) = (   0.0937500   0.4062500  -0.4062500), wk =   0.0058594
        k(  193) = (   0.0937500   0.4062500  -0.3437500), wk =   0.0058594
        k(  194) = (   0.0937500   0.4062500  -0.2812500), wk =   0.0058594
        k(  195) = (   0.0937500   0.4062500  -0.2187500), wk =   0.0058594
        k(  196) = (   0.0937500   0.4062500  -0.1562500), wk =   0.0058594
        k(  197) = (   0.0937500   0.4062500  -0.0937500), wk =   0.0058594
        k(  198) = (   0.0937500   0.4687500   0.4687500), wk =   0.0029297
        k(  199) = (   0.0937500   0.4687500  -0.4687500), wk =   0.0058594
        k(  200) = (   0.0937500   0.4687500  -0.4062500), wk =   0.0058594
        k(  201) = (   0.0937500   0.4687500  -0.3437500), wk =   0.0058594
        k(  202) = (   0.0937500   0.4687500  -0.2812500), wk =   0.0058594
        k(  203) = (   0.0937500   0.4687500  -0.2187500), wk =   0.0058594
        k(  204) = (   0.0937500   0.4687500  -0.1562500), wk =   0.0058594
        k(  205) = (   0.0937500   0.4687500  -0.0937500), wk =   0.0058594
        k(  206) = (   0.0937500  -0.4687500  -0.4687500), wk =   0.0029297
        k(  207) = (   0.0937500  -0.4687500  -0.4062500), wk =   0.0058594
        k(  208) = (   0.0937500  -0.4687500  -0.3437500), wk =   0.0058594
        k(  209) = (   0.0937500  -0.4687500  -0.2812500), wk =   0.0058594
        k(  210) = (   0.0937500  -0.4687500  -0.2187500), wk =   0.0058594
        k(  211) = (   0.0937500  -0.4687500  -0.1562500), wk =   0.0058594
        k(  212) = (   0.0937500  -0.4062500  -0.4062500), wk =   0.0029297
        k(  213) = (   0.0937500  -0.4062500  -0.3437500), wk =   0.0058594
        k(  214) = (   0.0937500  -0.4062500  -0.2812500), wk =   0.0058594
        k(  215) = (   0.0937500  -0.4062500  -0.2187500), wk =   0.0058594
        k(  216) = (   0.0937500  -0.4062500  -0.1562500), wk =   0.0058594
        k(  217) = (   0.0937500  -0.3437500  -0.3437500), wk =   0.0029297
        k(  218) = (   0.0937500  -0.3437500  -0.2812500), wk =   0.0058594
        k(  219) = (   0.0937500  -0.3437500  -0.2187500), wk =   0.0058594
        k(  220) = (   0.0937500  -0.3437500  -0.1562500), wk =   0.0058594
        k(  221) = (   0.0937500  -0.2812500  -0.2812500), wk =   0.0029297
        k(  222) = (   0.0937500  -0.2812500  -0.2187500), wk =   0.0058594
        k(  223) = (   0.0937500  -0.2812500  -0.1562500), wk =   0.0058594
        k(  224) = (   0.0937500  -0.2187500  -0.2187500), wk =   0.0029297
        k(  225) = (   0.0937500  -0.2187500  -0.1562500), wk =   0.0058594
        k(  226) = (   0.0937500  -0.1562500  -0.1562500), wk =   0.0029297
        k(  227) = (   0.1562500   0.1562500   0.1562500), wk =   0.0009766
        k(  228) = (   0.1562500   0.1562500   0.2187500), wk =   0.0029297
        k(  229) = (   0.1562500   0.1562500   0.2812500), wk =   0.0029297
        k(  230) = (   0.1562500   0.1562500   0.3437500), wk =   0.0029297
        k(  231) = (   0.1562500   0.1562500   0.4062500), wk =   0.0029297
        k(  232) = (   0.1562500   0.1562500   0.4687500), wk =   0.0029297
        k(  233) = (   0.1562500   0.1562500  -0.4687500), wk =   0.0029297
        k(  234) = (   0.1562500   0.1562500  -0.4062500), wk =   0.0029297
        k(  235) = (   0.1562500   0.1562500  -0.3437500), wk =   0.0029297
        k(  236) = (   0.1562500   0.1562500  -0.2812500), wk =   0.0029297
        k(  237) = (   0.1562500   0.1562500  -0.2187500), wk =   0.0029297
        k(  238) = (   0.1562500   0.1562500  -0.1562500), wk =   0.0029297
        k(  239) = (   0.1562500   0.2187500   0.2187500), wk =   0.0029297
        k(  240) = (   0.1562500   0.2187500   0.2812500), wk =   0.0058594
        k(  241) = (   0.1562500   0.2187500   0.3437500), wk =   0.0058594
        k(  242) = (   0.1562500   0.2187500   0.4062500), wk =   0.0058594
        k(  243) = (   0.1562500   0.2187500   0.4687500), wk =   0.0058594
        k(  244) = (   0.1562500   0.2187500  -0.4687500), wk =   0.0058594
        k(  245) = (   0.1562500   0.2187500  -0.4062500), wk =   0.0058594
        k(  246) = (   0.1562500   0.2187500  -0.3437500), wk =   0.0058594
        k(  247) = (   0.1562500   0.2187500  -0.2812500), wk =   0.0058594
        k(  248) = (   0.1562500   0.2187500  -0.2187500), wk =   0.0058594
        k(  249) = (   0.1562500   0.2187500  -0.1562500), wk =   0.0058594
        k(  250) = (   0.1562500   0.2812500   0.2812500), wk =   0.0029297
        k(  251) = (   0.1562500   0.2812500   0.3437500), wk =   0.0058594
        k(  252) = (   0.1562500   0.2812500   0.4062500), wk =   0.0058594
        k(  253) = (   0.1562500   0.2812500   0.4687500), wk =   0.0058594
        k(  254) = (   0.1562500   0.2812500  -0.4687500), wk =   0.0058594
        k(  255) = (   0.1562500   0.2812500  -0.4062500), wk =   0.0058594
        k(  256) = (   0.1562500   0.2812500  -0.3437500), wk =   0.0058594
        k(  257) = (   0.1562500   0.2812500  -0.2812500), wk =   0.0058594
        k(  258) = (   0.1562500   0.2812500  -0.2187500), wk =   0.0058594
        k(  259) = (   0.1562500   0.2812500  -0.1562500), wk =   0.0058594
        k(  260) = (   0.1562500   0.3437500   0.3437500), wk =   0.0029297
        k(  261) = (   0.1562500   0.3437500   0.4062500), wk =   0.0058594
        k(  262) = (   0.1562500   0.3437500   0.4687500), wk =   0.0058594
        k(  263) = (   0.1562500   0.3437500  -0.4687500), wk =   0.0058594
        k(  264) = (   0.1562500   0.3437500  -0.4062500), wk =   0.0058594
        k(  265) = (   0.1562500   0.3437500  -0.3437500), wk =   0.0058594
        k(  266) = (   0.1562500   0.3437500  -0.2812500), wk =   0.0058594
        k(  267) = (   0.1562500   0.3437500  -0.2187500), wk =   0.0058594
        k(  268) = (   0.1562500   0.3437500  -0.1562500), wk =   0.0058594
        k(  269) = (   0.1562500   0.4062500   0.4062500), wk =   0.0029297
        k(  270) = (   0.1562500   0.4062500   0.4687500), wk =   0.0058594
        k(  271) = (   0.1562500   0.4062500  -0.4687500), wk =   0.0058594
        k(  272) = (   0.1562500   0.4062500  -0.4062500), wk =   0.0058594
        k(  273) = (   0.1562500   0.4062500  -0.3437500), wk =   0.0058594
        k(  274) = (   0.1562500   0.4062500  -0.2812500), wk =   0.0058594
        k(  275) = (   0.1562500   0.4062500  -0.2187500), wk =   0.0058594
        k(  276) = (   0.1562500   0.4062500  -0.1562500), wk =   0.0058594
        k(  277) = (   0.1562500   0.4687500   0.4687500), wk =   0.0029297
        k(  278) = (   0.1562500   0.4687500  -0.4687500), wk =   0.0058594
        k(  279) = (   0.1562500   0.4687500  -0.4062500), wk =   0.0058594
        k(  280) = (   0.1562500   0.4687500  -0.3437500), wk =   0.0058594
        k(  281) = (   0.1562500   0.4687500  -0.2812500), wk =   0.0058594
        k(  282) = (   0.1562500   0.4687500  -0.2187500), wk =   0.0058594
        k(  283) = (   0.1562500   0.4687500  -0.1562500), wk =   0.0058594
        k(  284) = (   0.1562500  -0.4687500  -0.4687500), wk =   0.0029297
        k(  285) = (   0.1562500  -0.4687500  -0.4062500), wk =   0.0058594
        k(  286) = (   0.1562500  -0.4687500  -0.3437500), wk =   0.0058594
        k(  287) = (   0.1562500  -0.4687500  -0.2812500), wk =   0.0058594
        k(  288) = (   0.1562500  -0.4687500  -0.2187500), wk =   0.0058594
        k(  289) = (   0.1562500  -0.4062500  -0.4062500), wk =   0.0029297
        k(  290) = (   0.1562500  -0.4062500  -0.3437500), wk =   0.0058594
        k(  291) = (   0.1562500  -0.4062500  -0.2812500), wk =   0.0058594
        k(  292) = (   0.1562500  -0.4062500  -0.2187500), wk =   0.0058594
        k(  293) = (   0.1562500  -0.3437500  -0.3437500), wk =   0.0029297
        k(  294) = (   0.1562500  -0.3437500  -0.2812500), wk =   0.0058594
        k(  295) = (   0.1562500  -0.3437500  -0.2187500), wk =   0.0058594
        k(  296) = (   0.1562500  -0.2812500  -0.2812500), wk =   0.0029297
        k(  297) = (   0.1562500  -0.2812500  -0.2187500), wk =   0.0058594
        k(  298) = (   0.1562500  -0.2187500  -0.2187500), wk =   0.0029297
        k(  299) = (   0.2187500   0.2187500   0.2187500), wk =   0.0009766
        k(  300) = (   0.2187500   0.2187500   0.2812500), wk =   0.0029297
        k(  301) = (   0.2187500   0.2187500   0.3437500), wk =   0.0029297
        k(  302) = (   0.2187500   0.2187500   0.4062500), wk =   0.0029297
        k(  303) = (   0.2187500   0.2187500   0.4687500), wk =   0.0029297
        k(  304) = (   0.2187500   0.2187500  -0.4687500), wk =   0.0029297
        k(  305) = (   0.2187500   0.2187500  -0.4062500), wk =   0.0029297
        k(  306) = (   0.2187500   0.2187500  -0.3437500), wk =   0.0029297
        k(  307) = (   0.2187500   0.2187500  -0.2812500), wk =   0.0029297
        k(  308) = (   0.2187500   0.2187500  -0.2187500), wk =   0.0029297
        k(  309) = (   0.2187500   0.2812500   0.2812500), wk =   0.0029297
        k(  310) = (   0.2187500   0.2812500   0.3437500), wk =   0.0058594
        k(  311) = (   0.2187500   0.2812500   0.4062500), wk =   0.0058594
        k(  312) = (   0.2187500   0.2812500   0.4687500), wk =   0.0058594
        k(  313) = (   0.2187500   0.2812500  -0.4687500), wk =   0.0058594
        k(  314) = (   0.2187500   0.2812500  -0.4062500), wk =   0.0058594
        k(  315) = (   0.2187500   0.2812500  -0.3437500), wk =   0.0058594
        k(  316) = (   0.2187500   0.2812500  -0.2812500), wk =   0.0058594
        k(  317) = (   0.2187500   0.2812500  -0.2187500), wk =   0.0058594
        k(  318) = (   0.2187500   0.3437500   0.3437500), wk =   0.0029297
        k(  319) = (   0.2187500   0.3437500   0.4062500), wk =   0.0058594
        k(  320) = (   0.2187500   0.3437500   0.4687500), wk =   0.0058594
        k(  321) = (   0.2187500   0.3437500  -0.4687500), wk =   0.0058594
        k(  322) = (   0.2187500   0.3437500  -0.4062500), wk =   0.0058594
        k(  323) = (   0.2187500   0.3437500  -0.3437500), wk =   0.0058594
        k(  324) = (   0.2187500   0.3437500  -0.2812500), wk =   0.0058594
        k(  325) = (   0.2187500   0.3437500  -0.2187500), wk =   0.0058594
        k(  326) = (   0.2187500   0.4062500   0.4062500), wk =   0.0029297
        k(  327) = (   0.2187500   0.4062500   0.4687500), wk =   0.0058594
        k(  328) = (   0.2187500   0.4062500  -0.4687500), wk =   0.0058594
[...]

          k =-0.4062 0.5312 0.1562 (   316 PWs)   bands (ev):

   -85.5876 -45.5878 -45.4712 -45.3924  13.2251  15.0988  15.4358  16.1306
    17.0715  18.3938  27.4951  34.2180  39.0972

     occupation numbers 
     1.0000   1.0000   1.0000   1.0000   1.0000   1.0000   1.0000   1.0000
     1.0680   0.0000   0.0000   0.0000   0.0000

          k = 0.5312-0.4062 1.0938 (   316 PWs)   bands (ev):

   -85.5834 -45.5567 -45.4777 -45.4217  13.8355  14.9685  15.1686  16.3380
    17.0586  19.4124  27.1448  31.5114  37.6110

     occupation numbers 
     1.0000   1.0000   1.0000   1.0000   1.0000   1.0000   1.0000   1.0000
     1.0638   0.0000   0.0000   0.0000   0.0000

          k = 0.4688-0.3438 1.0312 (   317 PWs)   bands (ev):

   -85.5796 -45.5501 -45.5017 -45.4219  14.2880  14.7398  15.0820  16.5270
    17.0940  20.7506  26.6610  29.3512  36.2269

     occupation numbers 
     1.0000   1.0000   1.0000   1.0000   1.0000   1.0000   1.0000   1.0000
     1.0746   0.0000   0.0000   0.0000   0.0000

          k = 0.4062-0.2812 0.9688 (   314 PWs)   bands (ev):

   -85.5762 -45.5316 -45.4646 -45.3777  14.4338  14.4884  15.2841  16.6923
    17.3173  22.2893  25.2970  28.6131  35.0180

     occupation numbers 
     1.0000   1.0000   1.0000   1.0000   1.0000   1.0000   1.0000   1.0009
     0.9503   0.0000   0.0000   0.0000   0.0000

          k = 0.3438-0.2188 0.9062 (   315 PWs)   bands (ev):

   -85.5755 -45.5179 -45.4736 -45.4283  14.1643  14.4424  15.5946  16.7496
    17.4530  22.9539  24.5831  28.9521  34.0342

     occupation numbers 
     1.0000   1.0000   1.0000   1.0000   1.0000   1.0000   1.0000   1.0024
     0.6254   0.0000   0.0000   0.0000   0.0000

          k =-0.2812 0.5312 0.2812 (   318 PWs)   bands (ev):

   -85.5897 -45.5877 -45.4984 -45.4223  12.9294  15.1957  15.6007  15.9586
    17.4277  17.7474  27.2286  37.9614  38.4584

     occupation numbers 
     1.0000   1.0000   1.0000   1.0000   1.0000   1.0000   1.0000   1.0000
     0.6947   0.0623   0.0000   0.0000   0.0000

          k =-0.3438 0.5938 0.2188 (   317 PWs)   bands (ev):

   -85.5863 -45.5951 -45.4648 -45.4318  13.3610  15.0189  15.4753  16.1445
    17.3978  18.4816  26.6633  35.6595  37.1569

     occupation numbers 
     1.0000   1.0000   1.0000   1.0000   1.0000   1.0000   1.0000   1.0000
     0.7733   0.0000   0.0000   0.0000   0.0000

          k = 0.5938-0.3438 1.1562 (   317 PWs)   bands (ev):

   -85.5827 -45.5654 -45.4715 -45.4561  13.8305  14.8550  15.2829  16.3571
    17.2993  19.5698  26.2801  33.0358  35.5111

     occupation numbers 
     1.0000   1.0000   1.0000   1.0000   1.0000   1.0000   1.0000   1.0000
     0.9801   0.0000   0.0000   0.0000   0.0000

          k = 0.5312-0.2812 1.0938 (   317 PWs)   bands (ev):

   -85.5792 -45.5659 -45.4883 -45.4333  14.2862  14.6816  15.0960  16.5316
    17.2696  20.9580  26.0304  30.5504  34.0636

     occupation numbers 
     1.0000   1.0000   1.0000   1.0000   1.0000   1.0000   1.0000   1.0000
     1.0207   0.0000   0.0000   0.0000   0.0000

          k = 0.4688-0.2188 1.0312 (   314 PWs)   bands (ev):

   -85.5757 -45.4976 -45.4568 -45.4313  14.4085  14.6212  15.1121  16.6742
    17.4394  22.5451  25.5881  28.7104  32.8495

     occupation numbers 
     1.0000   1.0000   1.0000   1.0000   1.0000   1.0000   1.0000   1.0007
     0.6629   0.0000   0.0000   0.0000   0.0000

          k = 0.4062-0.1562 0.9688 (   315 PWs)   bands (ev):

   -85.5746 -45.5294 -45.4829 -45.4069  14.1881  14.5354  15.4141  16.7749
    17.5597  24.1256  24.5674  28.1676  31.8519

     occupation numbers 
     1.0000   1.0000   1.0000   1.0000   1.0000   1.0000   1.0000   1.0035
     0.3438   0.0000   0.0000   0.0000   0.0000

          k =-0.2812 0.6562 0.2812 (   315 PWs)   bands (ev):

   -85.5834 -45.5490 -45.4561 -45.4285  13.6037  14.8866  15.5222  16.2323
    17.5319  19.0349  26.0457  34.8853  36.9693

     occupation numbers 
     1.0000   1.0000   1.0000   1.0000   1.0000   1.0000   1.0000   1.0000
     0.4120   0.0000   0.0000   0.0000   0.0000

          k = 0.6562-0.2812 1.2188 (   315 PWs)   bands (ev):

   -85.5806 -45.5280 -45.4749 -45.4308  13.8910  14.7109  15.4614  16.4170
    17.4868  20.0212  25.6046  33.2523  35.0719

     occupation numbers 
     1.0000   1.0000   1.0000   1.0000   1.0000   1.0000   1.0000   1.0000
     0.5319   0.0000   0.0000   0.0000   0.0000

          k = 0.5938-0.2188 1.1562 (   317 PWs)   bands (ev):

   -85.5784 -45.5344 -45.5097 -45.4506  14.2096  14.5816  15.2944  16.5628
    17.4204  21.3278  25.3555  31.6349  32.6993

     occupation numbers 
     1.0000   1.0000   1.0000   1.0000   1.0000   1.0000   1.0000   1.0001
     0.7144   0.0000   0.0000   0.0000   0.0000

          k = 0.5312-0.1562 1.0938 (   314 PWs)   bands (ev):

   -85.5753 -45.4914 -45.4785 -45.4223  14.3322  14.6764  15.1094  16.6972
    17.5365  22.8723  25.2478  29.7747  31.0507

     occupation numbers 
     1.0000   1.0000   1.0000   1.0000   1.0000   1.0000   1.0000   1.0010
     0.4004   0.0000   0.0000   0.0000   0.0000

          k = 0.4688-0.0938 1.0312 (   316 PWs)   bands (ev):

   -85.5747 -45.5387 -45.4895 -45.4415  14.1953  14.7781  15.1121  16.7180
    17.6394  24.5715  24.9882  28.1885  30.0072

     occupation numbers 
     1.0000   1.0000   1.0000   1.0000   1.0000   1.0000   1.0000   1.0014
     0.1851   0.0000   0.0000   0.0000   0.0000

          k =-0.2812-1.2188 0.2812 (   314 PWs)   bands (ev):

   -85.5787 -45.5197 -45.4594 -45.4288  13.9862  14.5861  15.5809  16.5264
    17.5149  20.8224  25.1226  31.6695  35.9024

     occupation numbers 
     1.0000   1.0000   1.0000   1.0000   1.0000   1.0000   1.0000   1.0000
     0.4562   0.0000   0.0000   0.0000   0.0000

          k =-0.3438-1.1562 0.2188 (   314 PWs)   bands (ev):

   -85.5765 -45.4954 -45.4729 -45.4202  14.1447  14.4674  15.5451  16.6817
    17.4955  21.9686  24.8455  30.2394  34.2568

     occupation numbers 
     1.0000   1.0000   1.0000   1.0000   1.0000   1.0000   1.0000   1.0008
     0.5082   0.0000   0.0000   0.0000   0.0000

          k =-0.4062-1.0938 0.1562 (   313 PWs)   bands (ev):

   -85.5745 -45.4938 -45.4512 -45.4054  14.2424  14.5227  15.3947  16.7571
    17.5544  23.3235  24.7843  29.0662  31.9673

     occupation numbers 
     1.0000   1.0000   1.0000   1.0000   1.0000   1.0000   1.0000   1.0027
     0.3564   0.0000   0.0000   0.0000   0.0000

          k =-0.2812-1.0938 0.2812 (   311 PWs)   bands (ev):

   -85.5744 -45.4729 -45.4256 -45.3804  14.1379  14.4360  15.6845  16.7918
    17.4980  22.8365  24.5204  28.9332  35.2945

     occupation numbers 
     1.0000   1.0000   1.0000   1.0000   1.0000   1.0000   1.0000   1.0044
     0.5014   0.0000   0.0000   0.0000   0.0000

          k =-0.3438-1.0312 0.2188 (   313 PWs)   bands (ev):

   -85.5742 -45.5124 -45.4485 -45.3824  14.1513  14.4305  15.6500  16.8343
    17.4676  23.8023  24.3076  28.1120  33.9279

     occupation numbers 
     1.0000   1.0000   1.0000   1.0000   1.0000   1.0000   1.0000   1.0079
     0.5847   0.0000   0.0000   0.0000   0.0000

          k =-0.2812-0.9688 0.2812 (   315 PWs)   bands (ev):

   -85.5751 -45.5318 -45.4822 -45.4029  14.1237  14.3855  15.7316  16.8485
    17.3646  23.6837  24.2083  28.0817  35.1675

     occupation numbers 
     1.0000   1.0000   1.0000   1.0000   1.0000   1.0000   1.0000   1.0095
     0.8540   0.0000   0.0000   0.0000   0.0000

          k =-0.3438 0.3438 0.3438 (   308 PWs)   bands (ev):

   -85.5909 -45.4133 -45.3619 -45.3619  12.3281  15.5461  15.7890  15.7890
    17.3279  17.3279  27.7902  40.3775  42.2796

     occupation numbers 
     1.0000   1.0000   1.0000   1.0000   1.0000   1.0000   1.0000   1.0000
     0.9308   0.9308   0.0000   0.0000   0.0000

          k =-0.4062 0.4062 0.2812 (   314 PWs)   bands (ev):

   -85.5903 -45.5534 -45.4123 -45.3904  12.6606  15.6018  15.6829  15.7878
    17.2391  17.5694  27.0130  38.5490  41.4956

     occupation numbers 
     1.0000   1.0000   1.0000   1.0000   1.0000   1.0000   1.0000   1.0000
     1.0510   0.3216   0.0000   0.0000   0.0000

          k =-0.4688 0.4688 0.2188 (   313 PWs)   bands (ev):

   -85.5866 -45.5544 -45.3908 -45.3879  13.1410  15.4667  15.5507  15.9208
    17.2038  18.2745  26.4623  35.6697  41.2434

     occupation numbers 
     1.0000   1.0000   1.0000   1.0000   1.0000   1.0000   1.0000   1.0000
     1.0728   0.0000   0.0000   0.0000   0.0000

          k = 0.4688-0.4688 1.1562 (   316 PWs)   bands (ev):

   -85.5836 -45.5500 -45.4509 -45.4386  13.6757  15.1335  15.3695  16.1092
    17.1680  19.2974  26.0773  32.8776  39.7268

     occupation numbers 
     1.0000   1.0000   1.0000   1.0000   1.0000   1.0000   1.0000   1.0000
     1.0824   0.0000   0.0000   0.0000   0.0000

          k = 0.4062-0.4062 1.0938 (   315 PWs)   bands (ev):

   -85.5796 -45.5444 -45.4513 -45.4042  14.1525  14.8150  15.2782  16.3981
    17.1273  20.6845  25.7472  30.3921  37.9739

     occupation numbers 
     1.0000   1.0000   1.0000   1.0000   1.0000   1.0000   1.0000   1.0000
     1.0816   0.0000   0.0000   0.0000   0.0000

          k = 0.3438-0.3438 1.0312 (   317 PWs)   bands (ev):

   -85.5774 -45.5349 -45.4738 -45.4718  14.3430  14.5034  15.3785  16.6216
    17.2275  22.2002  25.2019  28.5845  36.4389

     occupation numbers 
     1.0000   1.0000   1.0000   1.0000   1.0000   1.0000   1.0000   1.0003
     1.0597   0.0000   0.0000   0.0000   0.0000

          k =-0.3438 0.4688 0.3438 (   319 PWs)   bands (ev):

   -85.5900 -45.6362 -45.4858 -45.3973  12.8370  15.5882  15.7644  15.7842
    17.3936  17.5145  26.2068  39.3863  40.3197

     occupation numbers 
     1.0000   1.0000   1.0000   1.0000   1.0000   1.0000   1.0000   1.0000
     0.7841   0.4572   0.0000   0.0000   0.0000

          k =-0.4062 0.5312 0.2812 (   316 PWs)   bands (ev):

   -85.5866 -45.5608 -45.4798 -45.3922  13.1767  15.4646  15.7213  15.8781
    17.3388  18.2376  25.6262  37.1537  39.4979

     occupation numbers 
     1.0000   1.0000   1.0000   1.0000   1.0000   1.0000   1.0000   1.0000
     0.9095   0.0000   0.0000   0.0000   0.0000

          k = 0.5312-0.4062 1.2188 (   314 PWs)   bands (ev):

   -85.5829 -45.5572 -45.4429 -45.3749  13.6114  15.2047  15.5736  16.0610
    17.3247  19.2689  25.2288  34.4266  37.9829

     occupation numbers 
     1.0000   1.0000   1.0000   1.0000   1.0000   1.0000   1.0000   1.0000
     0.9368   0.0000   0.0000   0.0000   0.0000

          k = 0.4688-0.3438 1.1562 (   313 PWs)   bands (ev):

   -85.5793 -45.4831 -45.4340 -45.4261  14.0541  14.8633  15.4095  16.3057
    17.3075  20.6546  24.9482  31.8314  36.4872

     occupation numbers 
     1.0000   1.0000   1.0000   1.0000   1.0000   1.0000   1.0000   1.0000
     0.9670   0.0000   0.0000   0.0000   0.0000

          k = 0.4062-0.2812 1.0938 (   312 PWs)   bands (ev):

   -85.5760 -45.4888 -45.4332 -45.3842  14.3648  14.5408  15.3580  16.6099
    17.3786  22.1922  24.7153  29.5800  35.1219

     occupation numbers 
     1.0000   1.0000   1.0000   1.0000   1.0000   1.0000   1.0000   1.0002
     0.8211   0.0000   0.0000   0.0000   0.0000

          k =-0.3438 0.5938 0.3438 (   315 PWs)   bands (ev):

   -85.5846 -45.5512 -45.4667 -45.3863  13.3722  15.3182  15.7988  15.9148
    17.4918  18.6148  25.0252  37.1452  38.7370

     occupation numbers 
     1.0000   1.0000   1.0000   1.0000   1.0000   1.0000   1.0000   1.0000
     0.5182   0.0000   0.0000   0.0000   0.0000

          k = 0.5938-0.3438 1.2812 (   315 PWs)   bands (ev):

   -85.5824 -45.5749 -45.4604 -45.3796  13.6469  15.1044  15.6774  16.0796
    17.4512  19.5373  24.5941  35.4171  36.7375

     occupation numbers 
     1.0000   1.0000   1.0000   1.0000   1.0000   1.0000   1.0000   1.0000
     0.6302   0.0000   0.0000   0.0000   0.0000

          k = 0.5312-0.2812 1.2188 (   311 PWs)   bands (ev):

   -85.5786 -45.4763 -45.4087 -45.3972  14.0361  14.8628  15.4890  16.2968
    17.4239  20.8373  24.3808  33.3319  34.6790

     occupation numbers 
     1.0000   1.0000   1.0000   1.0000   1.0000   1.0000   1.0000   1.0000
     0.7049   0.0000   0.0000   0.0000   0.0000

          k = 0.4688-0.2188 1.1562 (   315 PWs)   bands (ev):

   -85.5774 -45.5257 -45.4899 -45.4140  14.3862  14.5549  15.2850  16.5027
    17.4115  22.2074  24.3304  31.0356  33.1610

     occupation numbers 
     1.0000   1.0000   1.0000   1.0000   1.0000   1.0000   1.0000   1.0000
     0.7380   0.0000   0.0000   0.0000   0.0000

          k =-0.3438-1.2812 0.3438 (   315 PWs)   bands (ev):

   -85.5809 -45.5187 -45.5064 -45.3949  13.7927  14.9724  15.6736  16.1105
    17.4695  20.2221  24.2261  33.9744  37.5387

     occupation numbers 
     1.0000   1.0000   1.0000   1.0000   1.0000   1.0000   1.0000   1.0000
     0.5797   0.0000   0.0000   0.0000   0.0000

          k =-0.4062-1.2188 0.2812 (   312 PWs)   bands (ev):

   -85.5783 -45.4814 -45.4336 -45.4063  14.0653  14.7908  15.5069  16.3407
    17.4512  21.2053  24.0900  32.4298  35.6180

     occupation numbers 
     1.0000   1.0000   1.0000   1.0000   1.0000   1.0000   1.0000   1.0000
     0.6303   0.0000   0.0000   0.0000   0.0000

          k =-0.3438-1.1562 0.3438 (   311 PWs)   bands (ev):

   -85.5769 -45.4597 -45.4326 -45.3872  14.1740  14.6865  15.4978  16.4312
    17.4420  21.7283  24.1712  30.8940  36.7746

     occupation numbers 
     1.0000   1.0000   1.0000   1.0000   1.0000   1.0000   1.0000   1.0000
     0.6556   0.0000   0.0000   0.0000   0.0000

          k =-0.4062 0.4062 0.4062 (   320 PWs)   bands (ev):

   -85.5896 -45.6346 -45.4603 -45.4603  12.8955  15.6823  15.6823  16.2364
    17.3458  17.3458  25.3820  39.9262  42.1493

     occupation numbers 
     1.0000   1.0000   1.0000   1.0000   1.0000   1.0000   1.0000   1.0000
     0.8952   0.8952   0.0000   0.0000   0.0000

          k =-0.4688 0.4688 0.3438 (   319 PWs)   bands (ev):

   -85.5873 -45.5578 -45.4808 -45.4807  13.1172  15.6043  15.6759  16.2241
    17.3237  17.8966  24.8531  38.5581  41.0782

     occupation numbers 
     1.0000   1.0000   1.0000   1.0000   1.0000   1.0000   1.0000   1.0000
     0.9388   0.0085   0.0000   0.0000   0.0000

          k = 0.4688-0.4688 1.2812 (   318 PWs)   bands (ev):

   -85.5846 -45.5843 -45.4952 -45.4184  13.4304  15.3789  15.8455  15.9067
    17.3187  18.9574  24.4569  35.9323  40.3141

     occupation numbers 
     1.0000   1.0000   1.0000   1.0000   1.0000   1.0000   1.0000   1.0000
     0.9477   0.0000   0.0000   0.0000   0.0000

          k = 0.4062-0.4062 1.2188 (   313 PWs)   bands (ev):

   -85.5802 -45.4638 -45.4470 -45.4254  13.8425  15.0617  15.6396  16.1217
    17.3496  20.3007  24.2387  33.2978  38.4747

     occupation numbers 
     1.0000   1.0000   1.0000   1.0000   1.0000   1.0000   1.0000   1.0000
     0.8872   0.0000   0.0000   0.0000   0.0000

          k =-0.4062 0.5312 0.4062 (   317 PWs)   bands (ev):

   -85.5858 -45.5374 -45.4609 -45.4564  13.1950  15.5742  15.7170  16.3632
    17.4735  17.9927  24.3224  39.0064  40.6014

     occupation numbers 
     1.0000   1.0000   1.0000   1.0000   1.0000   1.0000   1.0000   1.0000
     0.5686   0.0017   0.0000   0.0000   0.0000

          k = 0.5312-0.4062 1.3438 (   318 PWs)   bands (ev):

   -85.5844 -45.5369 -45.4974 -45.4579  13.3987  15.3995  15.8075  16.0757
    17.4387  18.8679  23.9921  37.2853  38.9007

     occupation numbers 
     1.0000   1.0000   1.0000   1.0000   1.0000   1.0000   1.0000   1.0000
     0.6647   0.0000   0.0000   0.0000   0.0000

          k = 0.4688-0.3438 1.2812 (   312 PWs)   bands (ev):

   -85.5805 -45.4887 -45.4202 -45.3958  13.7301  15.1349  15.7848  16.0350
    17.4364  20.0852  23.8947  34.8706  37.1459

     occupation numbers 
     1.0000   1.0000   1.0000   1.0000   1.0000   1.0000   1.0000   1.0000
     0.6709   0.0000   0.0000   0.0000   0.0000

          k =-0.4062-1.3438 0.4062 (   316 PWs)   bands (ev):

   -85.5831 -45.5363 -45.4642 -45.4340  13.5014  15.3220  15.8683  16.0115
    17.4600  19.2843  23.7911  36.4376  39.3513

     occupation numbers 
     1.0000   1.0000   1.0000   1.0000   1.0000   1.0000   1.0000   1.0000
     0.6059   0.0000   0.0000   0.0000   0.0000

          k =-0.4688 0.4688 0.4688 (   320 PWs)   bands (ev):

   -85.5863 -45.5415 -45.4994 -45.4994  13.1228  15.6181  15.6181  17.0551
    17.4506  17.4506  23.9077  39.6821  42.1164

     occupation numbers 
     1.0000   1.0000   1.0000   1.0000   1.0000   1.0000   1.0000   1.0626
     0.6319   0.6319   0.0000   0.0000   0.0000

          k = 0.4688-0.4688 1.4062 (   317 PWs)   bands (ev):

   -85.5847 -45.5321 -45.4600 -45.4541  13.2550  15.5631  15.6983  16.5509
    17.4610  18.2704  23.7208  38.7214  41.0318

     occupation numbers 
     1.0000   1.0000   1.0000   1.0000   1.0000   1.0000   1.0000   1.0001
     0.6032   0.0000   0.0000   0.0000   0.0000

     the Fermi energy is    17.5364 ev

!    total energy              =    -338.87819311 Ry
     Harris-Foulkes estimate   =    -338.87819311 Ry
     estimated scf accuracy    <          2.4E-09 Ry

     The total energy is the sum of the following terms:

     one-electron contribution =    -186.21771824 Ry
     hartree contribution      =     104.32423702 Ry
     xc contribution           =     -33.90369216 Ry
     ewald contribution        =    -223.08083981 Ry
     smearing contrib. (-TS)   =      -0.00017993 Ry

     convergence has been achieved in   6 iterations

     Writing output data file Ni_exc2.save

     init_run     :      7.74s CPU      8.12s WALL (       1 calls)
     electrons    :    101.70s CPU    109.33s WALL (       1 calls)

     Called by init_run:
     wfcinit      :      4.55s CPU      4.78s WALL (       1 calls)
     potinit      :      0.04s CPU      0.04s WALL (       1 calls)

     Called by electrons:
     c_bands      :     90.60s CPU     97.54s WALL (       7 calls)
     sum_band     :     10.70s CPU     11.35s WALL (       7 calls)
     v_of_rho     :      0.14s CPU      0.14s WALL (       7 calls)
     v_h          :      0.00s CPU      0.00s WALL (       7 calls)
     v_xc         :      0.14s CPU      0.14s WALL (       7 calls)
     newd         :      0.36s CPU      0.35s WALL (       7 calls)
     mix_rho      :      0.00s CPU      0.00s WALL (       7 calls)

     Called by c_bands:
     init_us_2    :      3.65s CPU      3.69s WALL (    6120 calls)
     cegterg      :     85.22s CPU     91.90s WALL (    2856 calls)

     Called by sum_band:
     sum_band:bec :      0.12s CPU      0.13s WALL (    2856 calls)
     addusdens    :      0.25s CPU      0.25s WALL (       7 calls)

     Called by *egterg:
     h_psi        :     49.00s CPU     53.28s WALL (    9549 calls)
     s_psi        :      4.90s CPU      5.30s WALL (    9549 calls)
     g_psi        :      0.42s CPU      0.41s WALL (    6285 calls)
     cdiaghg      :     12.42s CPU     13.08s WALL (    8733 calls)
     cegterg:over :      9.09s CPU      9.72s WALL (    6285 calls)
     cegterg:upda :      5.21s CPU      5.60s WALL (    6285 calls)
     cegterg:last :      3.15s CPU      3.37s WALL (    2856 calls)

     Called by h_psi:
     h_psi:vloc   :     38.67s CPU     41.91s WALL (    9549 calls)
     h_psi:vnl    :     10.04s CPU     11.04s WALL (    9549 calls)
     add_vuspsi   :      4.87s CPU      5.25s WALL (    9549 calls)

     General routines
     calbec       :      6.99s CPU      7.54s WALL (   12405 calls)
     fft          :      0.02s CPU      0.03s WALL (      93 calls)
     fftw         :     35.23s CPU     38.19s WALL (  224822 calls)
     davcio       :      0.01s CPU      0.03s WALL (     408 calls)

     Parallel routines
     fft_scatter  :      4.64s CPU      4.82s WALL (  224915 calls)

     PWSCF        :  1m52.43s CPU     2m 0.72s WALL


   This run was terminated on:  21:20:50  18Feb2020            

=------------------------------------------------------------------------------=
   JOB DONE.
=------------------------------------------------------------------------------=
