
     Program PWSCF v.5.1 starts on 18Feb2020 at 21:57:40 

     This program is part of the open-source Quantum ESPRESSO suite
     for quantum simulation of materials; please cite
         "P. Giannozzi et al., J. Phys.:Condens. Matter 21 395502 (2009);
          URL http://www.quantum-espresso.org", 
     in publications or presentations arising from this work. More details at
     http://www.quantum-espresso.org/quote

     Parallel version (MPI), running on     1 processors
     Waiting for input...
     Reading input from standard input

     Current dimensions of program PWSCF are:
     Max number of different atomic species (ntypx) = 10
     Max number of k-points (npk) =  40000
     Max angular momentum in pseudopotentials (lmaxx) =  3

     Subspace diagonalization in iterative solution of the eigenvalue problem:
     a serial algorithm will be used


     G-vector sticks info
     --------------------
     sticks:   dense  smooth     PW     G-vecs:    dense   smooth      PW
     Sum         253     253     91                 2565     2565     609



     bravais-lattice index     =            2
     lattice parameter (alat)  =       6.6590  a.u.
     unit-cell volume          =      73.8188 (a.u.)^3
     number of atoms/cell      =            1
     number of atomic types    =            1
     number of electrons       =        18.00
     number of Kohn-Sham states=           13
     kinetic-energy cutoff     =      40.0000  Ry
     charge density cutoff     =     160.0000  Ry
     convergence threshold     =      1.0E-06
     mixing beta               =       0.7000
     number of iterations used =            8  plain     mixing
     Exchange-correlation      = PBESOL ( 1  4 10  8 0)

     celldm(1)=   6.659000  celldm(2)=   0.000000  celldm(3)=   0.000000
     celldm(4)=   0.000000  celldm(5)=   0.000000  celldm(6)=   0.000000

     crystal axes: (cart. coord. in units of alat)
               a(1) = (  -0.500000   0.000000   0.500000 )  
               a(2) = (   0.000000   0.500000   0.500000 )  
               a(3) = (  -0.500000   0.500000   0.000000 )  

     reciprocal axes: (cart. coord. in units 2 pi/alat)
               b(1) = ( -1.000000 -1.000000  1.000000 )  
               b(2) = (  1.000000  1.000000  1.000000 )  
               b(3) = ( -1.000000  1.000000 -1.000000 )  


     PseudoPot. # 1 for Ni read from file:
     ../pseudo/Ni.pbesol-spn-rrkjus_psl.1.0.0.UPF
     MD5 check sum: 6fc0a587bf949a08f2faed986b854013
     Pseudo is Ultrasoft + core correction, Zval = 18.0
     Generated using "atomic" code by A. Dal Corso  v.6.3
     Using radial grid of 1195 points,  6 beta functions with: 
                l(1) =   0
                l(2) =   0
                l(3) =   1
                l(4) =   1
                l(5) =   2
                l(6) =   2
     Q(r) pseudized with 0 coefficients 


     atomic species   valence    mass     pseudopotential
        Ni            18.00    58.69000     Ni( 1.00)

     48 Sym. Ops., with inversion, found


                                    s                        frac. trans.

      isym =  1     identity                                     

 cryst.   s( 1) = (     1          0          0      )
                  (     0          1          0      )
                  (     0          0          1      )

 cart.    s( 1) = (  1.0000000  0.0000000  0.0000000 )
                  (  0.0000000  1.0000000  0.0000000 )
                  (  0.0000000  0.0000000  1.0000000 )


      isym =  2     180 deg rotation - cart. axis [0,0,1]        

 cryst.   s( 2) = (     0          1         -1      )
                  (     1          0         -1      )
                  (     0          0         -1      )

 cart.    s( 2) = ( -1.0000000  0.0000000  0.0000000 )
                  (  0.0000000 -1.0000000  0.0000000 )
                  (  0.0000000  0.0000000  1.0000000 )


      isym =  3     180 deg rotation - cart. axis [0,1,0]        

 cryst.   s( 3) = (    -1          0          0      )
                  (    -1          0          1      )
                  (    -1          1          0      )

 cart.    s( 3) = ( -1.0000000  0.0000000  0.0000000 )
                  (  0.0000000  1.0000000  0.0000000 )
                  (  0.0000000  0.0000000 -1.0000000 )


      isym =  4     180 deg rotation - cart. axis [1,0,0]        

 cryst.   s( 4) = (     0         -1          1      )
                  (     0         -1          0      )
                  (     1         -1          0      )

 cart.    s( 4) = (  1.0000000  0.0000000  0.0000000 )
                  (  0.0000000 -1.0000000  0.0000000 )
                  (  0.0000000  0.0000000 -1.0000000 )


      isym =  5     180 deg rotation - cart. axis [1,1,0]        

 cryst.   s( 5) = (     0         -1          0      )
                  (    -1          0          0      )
                  (     0          0         -1      )

 cart.    s( 5) = (  0.0000000  1.0000000  0.0000000 )
                  (  1.0000000  0.0000000  0.0000000 )
                  (  0.0000000  0.0000000 -1.0000000 )


      isym =  6     180 deg rotation - cart. axis [1,-1,0]       

 cryst.   s( 6) = (    -1          0          1      )
                  (     0         -1          1      )
                  (     0          0          1      )

 cart.    s( 6) = (  0.0000000 -1.0000000  0.0000000 )
                  ( -1.0000000  0.0000000  0.0000000 )
                  (  0.0000000  0.0000000 -1.0000000 )


      isym =  7      90 deg rotation - cart. axis [0,0,-1]       

 cryst.   s( 7) = (     0          1          0      )
                  (     0          1         -1      )
                  (    -1          1          0      )

 cart.    s( 7) = (  0.0000000  1.0000000  0.0000000 )
                  ( -1.0000000  0.0000000  0.0000000 )
                  (  0.0000000  0.0000000  1.0000000 )


      isym =  8      90 deg rotation - cart. axis [0,0,1]        

 cryst.   s( 8) = (     1          0         -1      )
                  (     1          0          0      )
                  (     1         -1          0      )

 cart.    s( 8) = (  0.0000000 -1.0000000  0.0000000 )
                  (  1.0000000  0.0000000  0.0000000 )
                  (  0.0000000  0.0000000  1.0000000 )


      isym =  9     180 deg rotation - cart. axis [1,0,1]        

 cryst.   s( 9) = (    -1          0          0      )
                  (     0          0         -1      )
                  (     0         -1          0      )

 cart.    s( 9) = (  0.0000000  0.0000000  1.0000000 )
                  (  0.0000000 -1.0000000  0.0000000 )
                  (  1.0000000  0.0000000  0.0000000 )


      isym = 10     180 deg rotation - cart. axis [-1,0,1]       

 cryst.   s(10) = (     1          0          0      )
                  (     1         -1          0      )
                  (     1          0         -1      )

 cart.    s(10) = (  0.0000000  0.0000000 -1.0000000 )
                  (  0.0000000 -1.0000000  0.0000000 )
                  ( -1.0000000  0.0000000  0.0000000 )


      isym = 11      90 deg rotation - cart. axis [0,1,0]        

 cryst.   s(11) = (     0          1         -1      )
                  (    -1          1          0      )
                  (     0          1          0      )

 cart.    s(11) = (  0.0000000  0.0000000  1.0000000 )
                  (  0.0000000  1.0000000  0.0000000 )
                  ( -1.0000000  0.0000000  0.0000000 )


      isym = 12      90 deg rotation - cart. axis [0,-1,0]       

 cryst.   s(12) = (     0         -1          1      )
                  (     0          0          1      )
                  (    -1          0          1      )

 cart.    s(12) = (  0.0000000  0.0000000 -1.0000000 )
                  (  0.0000000  1.0000000  0.0000000 )
                  (  1.0000000  0.0000000  0.0000000 )


      isym = 13     180 deg rotation - cart. axis [0,1,1]        

 cryst.   s(13) = (    -1          1          0      )
                  (     0          1          0      )
                  (     0          1         -1      )

 cart.    s(13) = ( -1.0000000  0.0000000  0.0000000 )
                  (  0.0000000  0.0000000  1.0000000 )
                  (  0.0000000  1.0000000  0.0000000 )


      isym = 14     180 deg rotation - cart. axis [0,1,-1]       

 cryst.   s(14) = (     0          0         -1      )
                  (     0         -1          0      )
                  (    -1          0          0      )

 cart.    s(14) = ( -1.0000000  0.0000000  0.0000000 )
                  (  0.0000000  0.0000000 -1.0000000 )
                  (  0.0000000 -1.0000000  0.0000000 )


      isym = 15      90 deg rotation - cart. axis [-1,0,0]       

 cryst.   s(15) = (     0          0          1      )
                  (    -1          0          1      )
                  (     0         -1          1      )

 cart.    s(15) = (  1.0000000  0.0000000  0.0000000 )
                  (  0.0000000  0.0000000  1.0000000 )
                  (  0.0000000 -1.0000000  0.0000000 )


      isym = 16      90 deg rotation - cart. axis [1,0,0]        

 cryst.   s(16) = (     1         -1          0      )
                  (     1          0         -1      )
                  (     1          0          0      )

 cart.    s(16) = (  1.0000000  0.0000000  0.0000000 )
                  (  0.0000000  0.0000000 -1.0000000 )
                  (  0.0000000  1.0000000  0.0000000 )


      isym = 17     120 deg rotation - cart. axis [-1,-1,-1]     

 cryst.   s(17) = (    -1          0          1      )
                  (    -1          1          0      )
                  (    -1          0          0      )

 cart.    s(17) = (  0.0000000  1.0000000  0.0000000 )
                  (  0.0000000  0.0000000  1.0000000 )
                  (  1.0000000  0.0000000  0.0000000 )


      isym = 18     120 deg rotation - cart. axis [-1,1,1]       

 cryst.   s(18) = (     0          1          0      )
                  (     0          0          1      )
                  (     1          0          0      )

 cart.    s(18) = (  0.0000000 -1.0000000  0.0000000 )
                  (  0.0000000  0.0000000  1.0000000 )
                  ( -1.0000000  0.0000000  0.0000000 )


      isym = 19     120 deg rotation - cart. axis [1,1,-1]       

 cryst.   s(19) = (     1          0         -1      )
                  (     0          0         -1      )
                  (     0          1         -1      )

 cart.    s(19) = (  0.0000000  1.0000000  0.0000000 )
                  (  0.0000000  0.0000000 -1.0000000 )
                  ( -1.0000000  0.0000000  0.0000000 )


      isym = 20     120 deg rotation - cart. axis [1,-1,1]       

 cryst.   s(20) = (     0         -1          0      )
                  (     1         -1          0      )
                  (     0         -1          1      )

 cart.    s(20) = (  0.0000000 -1.0000000  0.0000000 )
                  (  0.0000000  0.0000000 -1.0000000 )
                  (  1.0000000  0.0000000  0.0000000 )


      isym = 21     120 deg rotation - cart. axis [1,1,1]        

 cryst.   s(21) = (     0          0         -1      )
                  (     0          1         -1      )
                  (     1          0         -1      )

 cart.    s(21) = (  0.0000000  0.0000000  1.0000000 )
                  (  1.0000000  0.0000000  0.0000000 )
                  (  0.0000000  1.0000000  0.0000000 )


      isym = 22     120 deg rotation - cart. axis [-1,1,-1]      

 cryst.   s(22) = (    -1          1          0      )
                  (    -1          0          0      )
                  (    -1          0          1      )

 cart.    s(22) = (  0.0000000  0.0000000  1.0000000 )
                  ( -1.0000000  0.0000000  0.0000000 )
                  (  0.0000000 -1.0000000  0.0000000 )


      isym = 23     120 deg rotation - cart. axis [1,-1,-1]      

 cryst.   s(23) = (     0          0          1      )
                  (     1          0          0      )
                  (     0          1          0      )

 cart.    s(23) = (  0.0000000  0.0000000 -1.0000000 )
                  ( -1.0000000  0.0000000  0.0000000 )
                  (  0.0000000  1.0000000  0.0000000 )


      isym = 24     120 deg rotation - cart. axis [-1,-1,1]      

 cryst.   s(24) = (     1         -1          0      )
                  (     0         -1          1      )
                  (     0         -1          0      )

 cart.    s(24) = (  0.0000000  0.0000000 -1.0000000 )
                  (  1.0000000  0.0000000  0.0000000 )
                  (  0.0000000 -1.0000000  0.0000000 )


      isym = 25     inversion                                    

 cryst.   s(25) = (    -1          0          0      )
                  (     0         -1          0      )
                  (     0          0         -1      )

 cart.    s(25) = ( -1.0000000  0.0000000  0.0000000 )
                  (  0.0000000 -1.0000000  0.0000000 )
                  (  0.0000000  0.0000000 -1.0000000 )


      isym = 26     inv. 180 deg rotation - cart. axis [0,0,1]   

 cryst.   s(26) = (     0         -1          1      )
                  (    -1          0          1      )
                  (     0          0          1      )

 cart.    s(26) = (  1.0000000  0.0000000  0.0000000 )
                  (  0.0000000  1.0000000  0.0000000 )
                  (  0.0000000  0.0000000 -1.0000000 )


      isym = 27     inv. 180 deg rotation - cart. axis [0,1,0]   

 cryst.   s(27) = (     1          0          0      )
                  (     1          0         -1      )
                  (     1         -1          0      )

 cart.    s(27) = (  1.0000000  0.0000000  0.0000000 )
                  (  0.0000000 -1.0000000  0.0000000 )
                  (  0.0000000  0.0000000  1.0000000 )


      isym = 28     inv. 180 deg rotation - cart. axis [1,0,0]   

 cryst.   s(28) = (     0          1         -1      )
                  (     0          1          0      )
                  (    -1          1          0      )

 cart.    s(28) = ( -1.0000000  0.0000000  0.0000000 )
                  (  0.0000000  1.0000000  0.0000000 )
                  (  0.0000000  0.0000000  1.0000000 )


      isym = 29     inv. 180 deg rotation - cart. axis [1,1,0]   

 cryst.   s(29) = (     0          1          0      )
                  (     1          0          0      )
                  (     0          0          1      )

 cart.    s(29) = (  0.0000000 -1.0000000  0.0000000 )
                  ( -1.0000000  0.0000000  0.0000000 )
                  (  0.0000000  0.0000000  1.0000000 )


      isym = 30     inv. 180 deg rotation - cart. axis [1,-1,0]  

 cryst.   s(30) = (     1          0         -1      )
                  (     0          1         -1      )
                  (     0          0         -1      )

 cart.    s(30) = (  0.0000000  1.0000000  0.0000000 )
                  (  1.0000000  0.0000000  0.0000000 )
                  (  0.0000000  0.0000000  1.0000000 )


      isym = 31     inv.  90 deg rotation - cart. axis [0,0,-1]  

 cryst.   s(31) = (     0         -1          0      )
                  (     0         -1          1      )
                  (     1         -1          0      )

 cart.    s(31) = (  0.0000000 -1.0000000  0.0000000 )
                  (  1.0000000  0.0000000  0.0000000 )
                  (  0.0000000  0.0000000 -1.0000000 )


      isym = 32     inv.  90 deg rotation - cart. axis [0,0,1]   

 cryst.   s(32) = (    -1          0          1      )
                  (    -1          0          0      )
                  (    -1          1          0      )

 cart.    s(32) = (  0.0000000  1.0000000  0.0000000 )
                  ( -1.0000000  0.0000000  0.0000000 )
                  (  0.0000000  0.0000000 -1.0000000 )


      isym = 33     inv. 180 deg rotation - cart. axis [1,0,1]   

 cryst.   s(33) = (     1          0          0      )
                  (     0          0          1      )
                  (     0          1          0      )

 cart.    s(33) = (  0.0000000  0.0000000 -1.0000000 )
                  (  0.0000000  1.0000000  0.0000000 )
                  ( -1.0000000  0.0000000  0.0000000 )


      isym = 34     inv. 180 deg rotation - cart. axis [-1,0,1]  

 cryst.   s(34) = (    -1          0          0      )
                  (    -1          1          0      )
                  (    -1          0          1      )

 cart.    s(34) = (  0.0000000  0.0000000  1.0000000 )
                  (  0.0000000  1.0000000  0.0000000 )
                  (  1.0000000  0.0000000  0.0000000 )


      isym = 35     inv.  90 deg rotation - cart. axis [0,1,0]   

 cryst.   s(35) = (     0         -1          1      )
                  (     1         -1          0      )
                  (     0         -1          0      )

 cart.    s(35) = (  0.0000000  0.0000000 -1.0000000 )
                  (  0.0000000 -1.0000000  0.0000000 )
                  (  1.0000000  0.0000000  0.0000000 )


      isym = 36     inv.  90 deg rotation - cart. axis [0,-1,0]  

 cryst.   s(36) = (     0          1         -1      )
                  (     0          0         -1      )
                  (     1          0         -1      )

 cart.    s(36) = (  0.0000000  0.0000000  1.0000000 )
                  (  0.0000000 -1.0000000  0.0000000 )
                  ( -1.0000000  0.0000000  0.0000000 )


      isym = 37     inv. 180 deg rotation - cart. axis [0,1,1]   

 cryst.   s(37) = (     1         -1          0      )
                  (     0         -1          0      )
                  (     0         -1          1      )

 cart.    s(37) = (  1.0000000  0.0000000  0.0000000 )
                  (  0.0000000  0.0000000 -1.0000000 )
                  (  0.0000000 -1.0000000  0.0000000 )


      isym = 38     inv. 180 deg rotation - cart. axis [0,1,-1]  

 cryst.   s(38) = (     0          0          1      )
                  (     0          1          0      )
                  (     1          0          0      )

 cart.    s(38) = (  1.0000000  0.0000000  0.0000000 )
                  (  0.0000000  0.0000000  1.0000000 )
                  (  0.0000000  1.0000000  0.0000000 )


      isym = 39     inv.  90 deg rotation - cart. axis [-1,0,0]  

 cryst.   s(39) = (     0          0         -1      )
                  (     1          0         -1      )
                  (     0          1         -1      )

 cart.    s(39) = ( -1.0000000  0.0000000  0.0000000 )
                  (  0.0000000  0.0000000 -1.0000000 )
                  (  0.0000000  1.0000000  0.0000000 )


      isym = 40     inv.  90 deg rotation - cart. axis [1,0,0]   

 cryst.   s(40) = (    -1          1          0      )
                  (    -1          0          1      )
                  (    -1          0          0      )

 cart.    s(40) = ( -1.0000000  0.0000000  0.0000000 )
                  (  0.0000000  0.0000000  1.0000000 )
                  (  0.0000000 -1.0000000  0.0000000 )


      isym = 41     inv. 120 deg rotation - cart. axis [-1,-1,-1]

 cryst.   s(41) = (     1          0         -1      )
                  (     1         -1          0      )
                  (     1          0          0      )

 cart.    s(41) = (  0.0000000 -1.0000000  0.0000000 )
                  (  0.0000000  0.0000000 -1.0000000 )
                  ( -1.0000000  0.0000000  0.0000000 )


      isym = 42     inv. 120 deg rotation - cart. axis [-1,1,1]  

 cryst.   s(42) = (     0         -1          0      )
                  (     0          0         -1      )
                  (    -1          0          0      )

 cart.    s(42) = (  0.0000000  1.0000000  0.0000000 )
                  (  0.0000000  0.0000000 -1.0000000 )
                  (  1.0000000  0.0000000  0.0000000 )


      isym = 43     inv. 120 deg rotation - cart. axis [1,1,-1]  

 cryst.   s(43) = (    -1          0          1      )
                  (     0          0          1      )
                  (     0         -1          1      )

 cart.    s(43) = (  0.0000000 -1.0000000  0.0000000 )
                  (  0.0000000  0.0000000  1.0000000 )
                  (  1.0000000  0.0000000  0.0000000 )


      isym = 44     inv. 120 deg rotation - cart. axis [1,-1,1]  

 cryst.   s(44) = (     0          1          0      )
                  (    -1          1          0      )
                  (     0          1         -1      )

 cart.    s(44) = (  0.0000000  1.0000000  0.0000000 )
                  (  0.0000000  0.0000000  1.0000000 )
                  ( -1.0000000  0.0000000  0.0000000 )


      isym = 45     inv. 120 deg rotation - cart. axis [1,1,1]   

 cryst.   s(45) = (     0          0          1      )
                  (     0         -1          1      )
                  (    -1          0          1      )

 cart.    s(45) = (  0.0000000  0.0000000 -1.0000000 )
                  ( -1.0000000  0.0000000  0.0000000 )
                  (  0.0000000 -1.0000000  0.0000000 )


      isym = 46     inv. 120 deg rotation - cart. axis [-1,1,-1] 

 cryst.   s(46) = (     1         -1          0      )
                  (     1          0          0      )
                  (     1          0         -1      )

 cart.    s(46) = (  0.0000000  0.0000000 -1.0000000 )
                  (  1.0000000  0.0000000  0.0000000 )
                  (  0.0000000  1.0000000  0.0000000 )


      isym = 47     inv. 120 deg rotation - cart. axis [1,-1,-1] 

 cryst.   s(47) = (     0          0         -1      )
                  (    -1          0          0      )
                  (     0         -1          0      )

 cart.    s(47) = (  0.0000000  0.0000000  1.0000000 )
                  (  1.0000000  0.0000000  0.0000000 )
                  (  0.0000000 -1.0000000  0.0000000 )


      isym = 48     inv. 120 deg rotation - cart. axis [-1,-1,1] 

 cryst.   s(48) = (    -1          1          0      )
                  (     0          1         -1      )
                  (     0          1          0      )

 cart.    s(48) = (  0.0000000  0.0000000  1.0000000 )
                  ( -1.0000000  0.0000000  0.0000000 )
                  (  0.0000000  1.0000000  0.0000000 )


     point group O_h (m-3m) 
     there are 10 classes
     the character table:

       E     8C3   6C2'  6C4   3C2   i     6S4   8S6   3s_h  6s_d 
A_1g   1.00  1.00  1.00  1.00  1.00  1.00  1.00  1.00  1.00  1.00
A_2g   1.00  1.00 -1.00 -1.00  1.00  1.00 -1.00  1.00  1.00 -1.00
E_g    2.00 -1.00  0.00  0.00  2.00  2.00  0.00 -1.00  2.00  0.00
T_1g   3.00  0.00 -1.00  1.00 -1.00  3.00  1.00  0.00 -1.00 -1.00
T_2g   3.00  0.00  1.00 -1.00 -1.00  3.00 -1.00  0.00 -1.00  1.00
A_1u   1.00  1.00  1.00  1.00  1.00 -1.00 -1.00 -1.00 -1.00 -1.00
A_2u   1.00  1.00 -1.00 -1.00  1.00 -1.00  1.00 -1.00 -1.00  1.00
E_u    2.00 -1.00  0.00  0.00  2.00 -2.00  0.00  1.00 -2.00  0.00
T_1u   3.00  0.00 -1.00  1.00 -1.00 -3.00 -1.00  0.00  1.00  1.00
T_2u   3.00  0.00  1.00 -1.00 -1.00 -3.00  1.00  0.00  1.00 -1.00

     the symmetry operations in each class:
     E        1
     3C2      2    4    3
     6C2'     5    6   14   13   10    9
     6C4      7    8   15   16   12   11
     8C3     17   19   20   18   24   21   22   23
     i       25
     3s_h    26   28   27
     6s_d    29   30   38   37   34   33
     6S4     31   32   39   40   36   35
     8S6     41   43   44   42   48   45   46   47

   Cartesian axes

     site n.     atom                  positions (alat units)
         1           Ni  tau(   1) = (   0.0000000   0.0000000   0.0000000  )

   Crystallographic axes

     site n.     atom                  positions (cryst. coord.)
         1           Ni  tau(   1) = (  0.0000000  0.0000000  0.0000000  )

     number of k points=   231  Marzari-Vanderbilt smearing, width (Ry)=  0.0200
                       cart. coord. in units 2pi/alat
        k(    1) = (  -0.0384615   0.0384615   0.0384615), wk =   0.0018207
        k(    2) = (  -0.1153846   0.1153846  -0.0384615), wk =   0.0054620
        k(    3) = (  -0.1923077   0.1923077  -0.1153846), wk =   0.0054620
        k(    4) = (  -0.2692308   0.2692308  -0.1923077), wk =   0.0054620
        k(    5) = (  -0.3461538   0.3461538  -0.2692308), wk =   0.0054620
        k(    6) = (  -0.4230769   0.4230769  -0.3461538), wk =   0.0054620
        k(    7) = (   0.5000000  -0.5000000   0.5769231), wk =   0.0054620
        k(    8) = (   0.4230769  -0.4230769   0.5000000), wk =   0.0054620
        k(    9) = (   0.3461538  -0.3461538   0.4230769), wk =   0.0054620
        k(   10) = (   0.2692308  -0.2692308   0.3461538), wk =   0.0054620
        k(   11) = (   0.1923077  -0.1923077   0.2692308), wk =   0.0054620
        k(   12) = (   0.1153846  -0.1153846   0.1923077), wk =   0.0054620
        k(   13) = (   0.0384615  -0.0384615   0.1153846), wk =   0.0054620
        k(   14) = (  -0.0384615   0.1923077   0.0384615), wk =   0.0054620
        k(   15) = (  -0.1153846   0.2692308  -0.0384615), wk =   0.0109240
        k(   16) = (  -0.1923077   0.3461538  -0.1153846), wk =   0.0109240
        k(   17) = (  -0.2692308   0.4230769  -0.1923077), wk =   0.0109240
        k(   18) = (  -0.3461538   0.5000000  -0.2692308), wk =   0.0109240
        k(   19) = (   0.5769231  -0.4230769   0.6538462), wk =   0.0109240
        k(   20) = (   0.5000000  -0.3461538   0.5769231), wk =   0.0109240
        k(   21) = (   0.4230769  -0.2692308   0.5000000), wk =   0.0109240
        k(   22) = (   0.3461538  -0.1923077   0.4230769), wk =   0.0109240
        k(   23) = (   0.2692308  -0.1153846   0.3461538), wk =   0.0109240
        k(   24) = (   0.1923077  -0.0384615   0.2692308), wk =   0.0109240
        k(   25) = (   0.1153846   0.0384615   0.1923077), wk =   0.0109240
        k(   26) = (  -0.0384615   0.3461538   0.0384615), wk =   0.0054620
        k(   27) = (  -0.1153846   0.4230769  -0.0384615), wk =   0.0109240
        k(   28) = (  -0.1923077   0.5000000  -0.1153846), wk =   0.0109240
        k(   29) = (  -0.2692308   0.5769231  -0.1923077), wk =   0.0109240
        k(   30) = (   0.6538462  -0.3461538   0.7307692), wk =   0.0109240
        k(   31) = (   0.5769231  -0.2692308   0.6538462), wk =   0.0109240
        k(   32) = (   0.5000000  -0.1923077   0.5769231), wk =   0.0109240
        k(   33) = (   0.4230769  -0.1153846   0.5000000), wk =   0.0109240
        k(   34) = (   0.3461538  -0.0384615   0.4230769), wk =   0.0109240
        k(   35) = (   0.2692308   0.0384615   0.3461538), wk =   0.0109240
        k(   36) = (   0.1923077   0.1153846   0.2692308), wk =   0.0109240
        k(   37) = (  -0.0384615   0.5000000   0.0384615), wk =   0.0054620
        k(   38) = (  -0.1153846   0.5769231  -0.0384615), wk =   0.0109240
        k(   39) = (  -0.1923077   0.6538462  -0.1153846), wk =   0.0109240
        k(   40) = (   0.7307692  -0.2692308   0.8076923), wk =   0.0109240
        k(   41) = (   0.6538462  -0.1923077   0.7307692), wk =   0.0109240
        k(   42) = (   0.5769231  -0.1153846   0.6538462), wk =   0.0109240
        k(   43) = (   0.5000000  -0.0384615   0.5769231), wk =   0.0109240
        k(   44) = (   0.4230769   0.0384615   0.5000000), wk =   0.0109240
        k(   45) = (   0.3461538   0.1153846   0.4230769), wk =   0.0109240
        k(   46) = (   0.2692308   0.1923077   0.3461538), wk =   0.0109240
        k(   47) = (  -0.0384615   0.6538462   0.0384615), wk =   0.0054620
        k(   48) = (  -0.1153846   0.7307692  -0.0384615), wk =   0.0109240
        k(   49) = (   0.8076923  -0.1923077   0.8846154), wk =   0.0109240
        k(   50) = (   0.7307692  -0.1153846   0.8076923), wk =   0.0109240
        k(   51) = (   0.6538462  -0.0384615   0.7307692), wk =   0.0109240
        k(   52) = (   0.5769231   0.0384615   0.6538462), wk =   0.0109240
        k(   53) = (   0.5000000   0.1153846   0.5769231), wk =   0.0109240
        k(   54) = (   0.4230769   0.1923077   0.5000000), wk =   0.0109240
        k(   55) = (   0.3461538   0.2692308   0.4230769), wk =   0.0109240
        k(   56) = (  -0.0384615   0.8076923   0.0384615), wk =   0.0054620
        k(   57) = (   0.8846154  -0.1153846   0.9615385), wk =   0.0109240
        k(   58) = (   0.8076923  -0.0384615   0.8846154), wk =   0.0109240
        k(   59) = (   0.7307692   0.0384615   0.8076923), wk =   0.0109240
        k(   60) = (   0.6538462   0.1153846   0.7307692), wk =   0.0109240
        k(   61) = (   0.5769231   0.1923077   0.6538462), wk =   0.0109240
        k(   62) = (   0.5000000   0.2692308   0.5769231), wk =   0.0109240
        k(   63) = (   0.4230769   0.3461538   0.5000000), wk =   0.0109240
        k(   64) = (  -0.0384615  -1.0384615   0.0384615), wk =   0.0054620
        k(   65) = (  -0.1153846  -0.9615385  -0.0384615), wk =   0.0109240
        k(   66) = (  -0.1923077  -0.8846154  -0.1153846), wk =   0.0109240
        k(   67) = (  -0.2692308  -0.8076923  -0.1923077), wk =   0.0109240
        k(   68) = (  -0.3461538  -0.7307692  -0.2692308), wk =   0.0109240
        k(   69) = (  -0.4230769  -0.6538462  -0.3461538), wk =   0.0109240
        k(   70) = (  -0.5000000  -0.5769231  -0.4230769), wk =   0.0054620
        k(   71) = (  -0.0384615  -0.8846154   0.0384615), wk =   0.0054620
        k(   72) = (  -0.1153846  -0.8076923  -0.0384615), wk =   0.0109240
        k(   73) = (  -0.1923077  -0.7307692  -0.1153846), wk =   0.0109240
        k(   74) = (  -0.2692308  -0.6538462  -0.1923077), wk =   0.0109240
        k(   75) = (  -0.3461538  -0.5769231  -0.2692308), wk =   0.0109240
        k(   76) = (  -0.0384615  -0.7307692   0.0384615), wk =   0.0054620
        k(   77) = (  -0.1153846  -0.6538462  -0.0384615), wk =   0.0109240
        k(   78) = (  -0.1923077  -0.5769231  -0.1153846), wk =   0.0109240
        k(   79) = (  -0.2692308  -0.5000000  -0.1923077), wk =   0.0109240
        k(   80) = (  -0.0384615  -0.5769231   0.0384615), wk =   0.0054620
        k(   81) = (  -0.1153846  -0.5000000  -0.0384615), wk =   0.0109240
        k(   82) = (  -0.1923077  -0.4230769  -0.1153846), wk =   0.0109240
        k(   83) = (  -0.0384615  -0.4230769   0.0384615), wk =   0.0054620
        k(   84) = (  -0.1153846  -0.3461538  -0.0384615), wk =   0.0109240
        k(   85) = (  -0.0384615  -0.2692308   0.0384615), wk =   0.0054620
        k(   86) = (  -0.1153846   0.1153846   0.1153846), wk =   0.0018207
        k(   87) = (  -0.1923077   0.1923077   0.0384615), wk =   0.0054620
        k(   88) = (  -0.2692308   0.2692308  -0.0384615), wk =   0.0054620
        k(   89) = (  -0.3461538   0.3461538  -0.1153846), wk =   0.0054620
        k(   90) = (  -0.4230769   0.4230769  -0.1923077), wk =   0.0054620
        k(   91) = (   0.5000000  -0.5000000   0.7307692), wk =   0.0054620
        k(   92) = (   0.4230769  -0.4230769   0.6538462), wk =   0.0054620
        k(   93) = (   0.3461538  -0.3461538   0.5769231), wk =   0.0054620
        k(   94) = (   0.2692308  -0.2692308   0.5000000), wk =   0.0054620
        k(   95) = (   0.1923077  -0.1923077   0.4230769), wk =   0.0054620
        k(   96) = (   0.1153846  -0.1153846   0.3461538), wk =   0.0054620
        k(   97) = (  -0.1153846   0.2692308   0.1153846), wk =   0.0054620
        k(   98) = (  -0.1923077   0.3461538   0.0384615), wk =   0.0109240
        k(   99) = (  -0.2692308   0.4230769  -0.0384615), wk =   0.0109240
        k(  100) = (  -0.3461538   0.5000000  -0.1153846), wk =   0.0109240
        k(  101) = (   0.5769231  -0.4230769   0.8076923), wk =   0.0109240
        k(  102) = (   0.5000000  -0.3461538   0.7307692), wk =   0.0109240
        k(  103) = (   0.4230769  -0.2692308   0.6538462), wk =   0.0109240
        k(  104) = (   0.3461538  -0.1923077   0.5769231), wk =   0.0109240
        k(  105) = (   0.2692308  -0.1153846   0.5000000), wk =   0.0109240
        k(  106) = (   0.1923077  -0.0384615   0.4230769), wk =   0.0109240
        k(  107) = (  -0.1153846   0.4230769   0.1153846), wk =   0.0054620
        k(  108) = (  -0.1923077   0.5000000   0.0384615), wk =   0.0109240
        k(  109) = (  -0.2692308   0.5769231  -0.0384615), wk =   0.0109240
        k(  110) = (   0.6538462  -0.3461538   0.8846154), wk =   0.0109240
        k(  111) = (   0.5769231  -0.2692308   0.8076923), wk =   0.0109240
        k(  112) = (   0.5000000  -0.1923077   0.7307692), wk =   0.0109240
        k(  113) = (   0.4230769  -0.1153846   0.6538462), wk =   0.0109240
        k(  114) = (   0.3461538  -0.0384615   0.5769231), wk =   0.0109240
        k(  115) = (   0.2692308   0.0384615   0.5000000), wk =   0.0109240
        k(  116) = (  -0.1153846   0.5769231   0.1153846), wk =   0.0054620
        k(  117) = (  -0.1923077   0.6538462   0.0384615), wk =   0.0109240
        k(  118) = (   0.7307692  -0.2692308   0.9615385), wk =   0.0109240
        k(  119) = (   0.6538462  -0.1923077   0.8846154), wk =   0.0109240
        k(  120) = (   0.5769231  -0.1153846   0.8076923), wk =   0.0109240
        k(  121) = (   0.5000000  -0.0384615   0.7307692), wk =   0.0109240
        k(  122) = (   0.4230769   0.0384615   0.6538462), wk =   0.0109240
        k(  123) = (   0.3461538   0.1153846   0.5769231), wk =   0.0109240
        k(  124) = (  -0.1153846   0.7307692   0.1153846), wk =   0.0054620
        k(  125) = (   0.8076923  -0.1923077   1.0384615), wk =   0.0109240
        k(  126) = (   0.7307692  -0.1153846   0.9615385), wk =   0.0109240
        k(  127) = (   0.6538462  -0.0384615   0.8846154), wk =   0.0109240
        k(  128) = (   0.5769231   0.0384615   0.8076923), wk =   0.0109240
        k(  129) = (   0.5000000   0.1153846   0.7307692), wk =   0.0109240
        k(  130) = (   0.4230769   0.1923077   0.6538462), wk =   0.0109240
        k(  131) = (  -0.1153846  -1.1153846   0.1153846), wk =   0.0054620
        k(  132) = (  -0.1923077  -1.0384615   0.0384615), wk =   0.0109240
        k(  133) = (  -0.2692308  -0.9615385  -0.0384615), wk =   0.0109240
        k(  134) = (  -0.3461538  -0.8846154  -0.1153846), wk =   0.0109240
        k(  135) = (  -0.4230769  -0.8076923  -0.1923077), wk =   0.0109240
        k(  136) = (  -0.5000000  -0.7307692  -0.2692308), wk =   0.0054620
        k(  137) = (  -0.1153846  -0.9615385   0.1153846), wk =   0.0054620
        k(  138) = (  -0.1923077  -0.8846154   0.0384615), wk =   0.0109240
        k(  139) = (  -0.2692308  -0.8076923  -0.0384615), wk =   0.0109240
        k(  140) = (  -0.3461538  -0.7307692  -0.1153846), wk =   0.0109240
        k(  141) = (  -0.1153846  -0.8076923   0.1153846), wk =   0.0054620
        k(  142) = (  -0.1923077  -0.7307692   0.0384615), wk =   0.0109240
        k(  143) = (  -0.2692308  -0.6538462  -0.0384615), wk =   0.0109240
        k(  144) = (  -0.1153846  -0.6538462   0.1153846), wk =   0.0054620
        k(  145) = (  -0.1923077  -0.5769231   0.0384615), wk =   0.0109240
        k(  146) = (  -0.1153846  -0.5000000   0.1153846), wk =   0.0054620
        k(  147) = (  -0.1923077   0.1923077   0.1923077), wk =   0.0018207
        k(  148) = (  -0.2692308   0.2692308   0.1153846), wk =   0.0054620
        k(  149) = (  -0.3461538   0.3461538   0.0384615), wk =   0.0054620
        k(  150) = (  -0.4230769   0.4230769  -0.0384615), wk =   0.0054620
        k(  151) = (   0.5000000  -0.5000000   0.8846154), wk =   0.0054620
        k(  152) = (   0.4230769  -0.4230769   0.8076923), wk =   0.0054620
        k(  153) = (   0.3461538  -0.3461538   0.7307692), wk =   0.0054620
        k(  154) = (   0.2692308  -0.2692308   0.6538462), wk =   0.0054620
        k(  155) = (   0.1923077  -0.1923077   0.5769231), wk =   0.0054620
        k(  156) = (  -0.1923077   0.3461538   0.1923077), wk =   0.0054620
        k(  157) = (  -0.2692308   0.4230769   0.1153846), wk =   0.0109240
        k(  158) = (  -0.3461538   0.5000000   0.0384615), wk =   0.0109240
        k(  159) = (   0.5769231  -0.4230769   0.9615385), wk =   0.0109240
        k(  160) = (   0.5000000  -0.3461538   0.8846154), wk =   0.0109240
        k(  161) = (   0.4230769  -0.2692308   0.8076923), wk =   0.0109240
        k(  162) = (   0.3461538  -0.1923077   0.7307692), wk =   0.0109240
        k(  163) = (   0.2692308  -0.1153846   0.6538462), wk =   0.0109240
        k(  164) = (  -0.1923077   0.5000000   0.1923077), wk =   0.0054620
        k(  165) = (  -0.2692308   0.5769231   0.1153846), wk =   0.0109240
        k(  166) = (   0.6538462  -0.3461538   1.0384615), wk =   0.0109240
        k(  167) = (   0.5769231  -0.2692308   0.9615385), wk =   0.0109240
        k(  168) = (   0.5000000  -0.1923077   0.8846154), wk =   0.0109240
        k(  169) = (   0.4230769  -0.1153846   0.8076923), wk =   0.0109240
        k(  170) = (   0.3461538  -0.0384615   0.7307692), wk =   0.0109240
        k(  171) = (  -0.1923077   0.6538462   0.1923077), wk =   0.0054620
        k(  172) = (   0.7307692  -0.2692308   1.1153846), wk =   0.0109240
        k(  173) = (   0.6538462  -0.1923077   1.0384615), wk =   0.0109240
        k(  174) = (   0.5769231  -0.1153846   0.9615385), wk =   0.0109240
        k(  175) = (   0.5000000  -0.0384615   0.8846154), wk =   0.0109240
        k(  176) = (   0.4230769   0.0384615   0.8076923), wk =   0.0109240
        k(  177) = (  -0.1923077  -1.1923077   0.1923077), wk =   0.0054620
        k(  178) = (  -0.2692308  -1.1153846   0.1153846), wk =   0.0109240
        k(  179) = (  -0.3461538  -1.0384615   0.0384615), wk =   0.0109240
        k(  180) = (  -0.4230769  -0.9615385  -0.0384615), wk =   0.0109240
        k(  181) = (  -0.5000000  -0.8846154  -0.1153846), wk =   0.0054620
        k(  182) = (  -0.1923077  -1.0384615   0.1923077), wk =   0.0054620
        k(  183) = (  -0.2692308  -0.9615385   0.1153846), wk =   0.0109240
        k(  184) = (  -0.3461538  -0.8846154   0.0384615), wk =   0.0109240
        k(  185) = (  -0.1923077  -0.8846154   0.1923077), wk =   0.0054620
        k(  186) = (  -0.2692308  -0.8076923   0.1153846), wk =   0.0109240
        k(  187) = (  -0.1923077  -0.7307692   0.1923077), wk =   0.0054620
        k(  188) = (  -0.2692308   0.2692308   0.2692308), wk =   0.0018207
        k(  189) = (  -0.3461538   0.3461538   0.1923077), wk =   0.0054620
        k(  190) = (  -0.4230769   0.4230769   0.1153846), wk =   0.0054620
        k(  191) = (   0.5000000  -0.5000000   1.0384615), wk =   0.0054620
        k(  192) = (   0.4230769  -0.4230769   0.9615385), wk =   0.0054620
        k(  193) = (   0.3461538  -0.3461538   0.8846154), wk =   0.0054620
        k(  194) = (   0.2692308  -0.2692308   0.8076923), wk =   0.0054620
        k(  195) = (  -0.2692308   0.4230769   0.2692308), wk =   0.0054620
        k(  196) = (  -0.3461538   0.5000000   0.1923077), wk =   0.0109240
        k(  197) = (   0.5769231  -0.4230769   1.1153846), wk =   0.0109240
        k(  198) = (   0.5000000  -0.3461538   1.0384615), wk =   0.0109240
        k(  199) = (   0.4230769  -0.2692308   0.9615385), wk =   0.0109240
        k(  200) = (   0.3461538  -0.1923077   0.8846154), wk =   0.0109240
        k(  201) = (  -0.2692308   0.5769231   0.2692308), wk =   0.0054620
        k(  202) = (   0.6538462  -0.3461538   1.1923077), wk =   0.0109240
        k(  203) = (   0.5769231  -0.2692308   1.1153846), wk =   0.0109240
        k(  204) = (   0.5000000  -0.1923077   1.0384615), wk =   0.0109240
        k(  205) = (   0.4230769  -0.1153846   0.9615385), wk =   0.0109240
        k(  206) = (  -0.2692308  -1.2692308   0.2692308), wk =   0.0054620
        k(  207) = (  -0.3461538  -1.1923077   0.1923077), wk =   0.0109240
        k(  208) = (  -0.4230769  -1.1153846   0.1153846), wk =   0.0109240
        k(  209) = (  -0.5000000  -1.0384615   0.0384615), wk =   0.0054620
        k(  210) = (  -0.2692308  -1.1153846   0.2692308), wk =   0.0054620
        k(  211) = (  -0.3461538  -1.0384615   0.1923077), wk =   0.0109240
        k(  212) = (  -0.2692308  -0.9615385   0.2692308), wk =   0.0054620
        k(  213) = (  -0.3461538   0.3461538   0.3461538), wk =   0.0018207
        k(  214) = (  -0.4230769   0.4230769   0.2692308), wk =   0.0054620
        k(  215) = (   0.5000000  -0.5000000   1.1923077), wk =   0.0054620
        k(  216) = (   0.4230769  -0.4230769   1.1153846), wk =   0.0054620
        k(  217) = (   0.3461538  -0.3461538   1.0384615), wk =   0.0054620
        k(  218) = (  -0.3461538   0.5000000   0.3461538), wk =   0.0054620
        k(  219) = (   0.5769231  -0.4230769   1.2692308), wk =   0.0109240
        k(  220) = (   0.5000000  -0.3461538   1.1923077), wk =   0.0109240
        k(  221) = (   0.4230769  -0.2692308   1.1153846), wk =   0.0109240
        k(  222) = (  -0.3461538  -1.3461538   0.3461538), wk =   0.0054620
        k(  223) = (  -0.4230769  -1.2692308   0.2692308), wk =   0.0109240
        k(  224) = (  -0.5000000  -1.1923077   0.1923077), wk =   0.0054620
        k(  225) = (  -0.3461538  -1.1923077   0.3461538), wk =   0.0054620
        k(  226) = (  -0.4230769   0.4230769   0.4230769), wk =   0.0018207
        k(  227) = (   0.5000000  -0.5000000   1.3461538), wk =   0.0054620
        k(  228) = (   0.4230769  -0.4230769   1.2692308), wk =   0.0054620
        k(  229) = (  -0.4230769  -1.4230769   0.4230769), wk =   0.0054620
        k(  230) = (  -0.5000000  -1.3461538   0.3461538), wk =   0.0054620
        k(  231) = (   0.5000000  -0.5000000  -0.5000000), wk =   0.0009103

                       cryst. coord.
        k(    1) = (   0.0384615   0.0384615   0.0384615), wk =   0.0018207
        k(    2) = (   0.0384615   0.0384615   0.1153846), wk =   0.0054620
        k(    3) = (   0.0384615   0.0384615   0.1923077), wk =   0.0054620
        k(    4) = (   0.0384615   0.0384615   0.2692308), wk =   0.0054620
        k(    5) = (   0.0384615   0.0384615   0.3461538), wk =   0.0054620
        k(    6) = (   0.0384615   0.0384615   0.4230769), wk =   0.0054620
        k(    7) = (   0.0384615   0.0384615  -0.5000000), wk =   0.0054620
        k(    8) = (   0.0384615   0.0384615  -0.4230769), wk =   0.0054620
        k(    9) = (   0.0384615   0.0384615  -0.3461538), wk =   0.0054620
        k(   10) = (   0.0384615   0.0384615  -0.2692308), wk =   0.0054620
        k(   11) = (   0.0384615   0.0384615  -0.1923077), wk =   0.0054620
        k(   12) = (   0.0384615   0.0384615  -0.1153846), wk =   0.0054620
        k(   13) = (   0.0384615   0.0384615  -0.0384615), wk =   0.0054620
        k(   14) = (   0.0384615   0.1153846   0.1153846), wk =   0.0054620
        k(   15) = (   0.0384615   0.1153846   0.1923077), wk =   0.0109240
        k(   16) = (   0.0384615   0.1153846   0.2692308), wk =   0.0109240
        k(   17) = (   0.0384615   0.1153846   0.3461538), wk =   0.0109240
        k(   18) = (   0.0384615   0.1153846   0.4230769), wk =   0.0109240
        k(   19) = (   0.0384615   0.1153846  -0.5000000), wk =   0.0109240
        k(   20) = (   0.0384615   0.1153846  -0.4230769), wk =   0.0109240
        k(   21) = (   0.0384615   0.1153846  -0.3461538), wk =   0.0109240
        k(   22) = (   0.0384615   0.1153846  -0.2692308), wk =   0.0109240
        k(   23) = (   0.0384615   0.1153846  -0.1923077), wk =   0.0109240
        k(   24) = (   0.0384615   0.1153846  -0.1153846), wk =   0.0109240
        k(   25) = (   0.0384615   0.1153846  -0.0384615), wk =   0.0109240
        k(   26) = (   0.0384615   0.1923077   0.1923077), wk =   0.0054620
        k(   27) = (   0.0384615   0.1923077   0.2692308), wk =   0.0109240
        k(   28) = (   0.0384615   0.1923077   0.3461538), wk =   0.0109240
        k(   29) = (   0.0384615   0.1923077   0.4230769), wk =   0.0109240
        k(   30) = (   0.0384615   0.1923077  -0.5000000), wk =   0.0109240
        k(   31) = (   0.0384615   0.1923077  -0.4230769), wk =   0.0109240
        k(   32) = (   0.0384615   0.1923077  -0.3461538), wk =   0.0109240
        k(   33) = (   0.0384615   0.1923077  -0.2692308), wk =   0.0109240
        k(   34) = (   0.0384615   0.1923077  -0.1923077), wk =   0.0109240
        k(   35) = (   0.0384615   0.1923077  -0.1153846), wk =   0.0109240
        k(   36) = (   0.0384615   0.1923077  -0.0384615), wk =   0.0109240
        k(   37) = (   0.0384615   0.2692308   0.2692308), wk =   0.0054620
        k(   38) = (   0.0384615   0.2692308   0.3461538), wk =   0.0109240
        k(   39) = (   0.0384615   0.2692308   0.4230769), wk =   0.0109240
        k(   40) = (   0.0384615   0.2692308  -0.5000000), wk =   0.0109240
        k(   41) = (   0.0384615   0.2692308  -0.4230769), wk =   0.0109240
        k(   42) = (   0.0384615   0.2692308  -0.3461538), wk =   0.0109240
        k(   43) = (   0.0384615   0.2692308  -0.2692308), wk =   0.0109240
        k(   44) = (   0.0384615   0.2692308  -0.1923077), wk =   0.0109240
        k(   45) = (   0.0384615   0.2692308  -0.1153846), wk =   0.0109240
        k(   46) = (   0.0384615   0.2692308  -0.0384615), wk =   0.0109240
        k(   47) = (   0.0384615   0.3461538   0.3461538), wk =   0.0054620
        k(   48) = (   0.0384615   0.3461538   0.4230769), wk =   0.0109240
        k(   49) = (   0.0384615   0.3461538  -0.5000000), wk =   0.0109240
        k(   50) = (   0.0384615   0.3461538  -0.4230769), wk =   0.0109240
        k(   51) = (   0.0384615   0.3461538  -0.3461538), wk =   0.0109240
        k(   52) = (   0.0384615   0.3461538  -0.2692308), wk =   0.0109240
        k(   53) = (   0.0384615   0.3461538  -0.1923077), wk =   0.0109240
        k(   54) = (   0.0384615   0.3461538  -0.1153846), wk =   0.0109240
        k(   55) = (   0.0384615   0.3461538  -0.0384615), wk =   0.0109240
        k(   56) = (   0.0384615   0.4230769   0.4230769), wk =   0.0054620
        k(   57) = (   0.0384615   0.4230769  -0.5000000), wk =   0.0109240
        k(   58) = (   0.0384615   0.4230769  -0.4230769), wk =   0.0109240
        k(   59) = (   0.0384615   0.4230769  -0.3461538), wk =   0.0109240
        k(   60) = (   0.0384615   0.4230769  -0.2692308), wk =   0.0109240
        k(   61) = (   0.0384615   0.4230769  -0.1923077), wk =   0.0109240
        k(   62) = (   0.0384615   0.4230769  -0.1153846), wk =   0.0109240
        k(   63) = (   0.0384615   0.4230769  -0.0384615), wk =   0.0109240
        k(   64) = (   0.0384615  -0.5000000  -0.5000000), wk =   0.0054620
        k(   65) = (   0.0384615  -0.5000000  -0.4230769), wk =   0.0109240
        k(   66) = (   0.0384615  -0.5000000  -0.3461538), wk =   0.0109240
        k(   67) = (   0.0384615  -0.5000000  -0.2692308), wk =   0.0109240
        k(   68) = (   0.0384615  -0.5000000  -0.1923077), wk =   0.0109240
        k(   69) = (   0.0384615  -0.5000000  -0.1153846), wk =   0.0109240
        k(   70) = (   0.0384615  -0.5000000  -0.0384615), wk =   0.0054620
        k(   71) = (   0.0384615  -0.4230769  -0.4230769), wk =   0.0054620
        k(   72) = (   0.0384615  -0.4230769  -0.3461538), wk =   0.0109240
        k(   73) = (   0.0384615  -0.4230769  -0.2692308), wk =   0.0109240
        k(   74) = (   0.0384615  -0.4230769  -0.1923077), wk =   0.0109240
        k(   75) = (   0.0384615  -0.4230769  -0.1153846), wk =   0.0109240
        k(   76) = (   0.0384615  -0.3461538  -0.3461538), wk =   0.0054620
        k(   77) = (   0.0384615  -0.3461538  -0.2692308), wk =   0.0109240
        k(   78) = (   0.0384615  -0.3461538  -0.1923077), wk =   0.0109240
        k(   79) = (   0.0384615  -0.3461538  -0.1153846), wk =   0.0109240
        k(   80) = (   0.0384615  -0.2692308  -0.2692308), wk =   0.0054620
        k(   81) = (   0.0384615  -0.2692308  -0.1923077), wk =   0.0109240
        k(   82) = (   0.0384615  -0.2692308  -0.1153846), wk =   0.0109240
        k(   83) = (   0.0384615  -0.1923077  -0.1923077), wk =   0.0054620
        k(   84) = (   0.0384615  -0.1923077  -0.1153846), wk =   0.0109240
        k(   85) = (   0.0384615  -0.1153846  -0.1153846), wk =   0.0054620
        k(   86) = (   0.1153846   0.1153846   0.1153846), wk =   0.0018207
        k(   87) = (   0.1153846   0.1153846   0.1923077), wk =   0.0054620
        k(   88) = (   0.1153846   0.1153846   0.2692308), wk =   0.0054620
        k(   89) = (   0.1153846   0.1153846   0.3461538), wk =   0.0054620
        k(   90) = (   0.1153846   0.1153846   0.4230769), wk =   0.0054620
        k(   91) = (   0.1153846   0.1153846  -0.5000000), wk =   0.0054620
        k(   92) = (   0.1153846   0.1153846  -0.4230769), wk =   0.0054620
        k(   93) = (   0.1153846   0.1153846  -0.3461538), wk =   0.0054620
        k(   94) = (   0.1153846   0.1153846  -0.2692308), wk =   0.0054620
        k(   95) = (   0.1153846   0.1153846  -0.1923077), wk =   0.0054620
        k(   96) = (   0.1153846   0.1153846  -0.1153846), wk =   0.0054620
        k(   97) = (   0.1153846   0.1923077   0.1923077), wk =   0.0054620
        k(   98) = (   0.1153846   0.1923077   0.2692308), wk =   0.0109240
        k(   99) = (   0.1153846   0.1923077   0.3461538), wk =   0.0109240
        k(  100) = (   0.1153846   0.1923077   0.4230769), wk =   0.0109240
        k(  101) = (   0.1153846   0.1923077  -0.5000000), wk =   0.0109240
        k(  102) = (   0.1153846   0.1923077  -0.4230769), wk =   0.0109240
        k(  103) = (   0.1153846   0.1923077  -0.3461538), wk =   0.0109240
        k(  104) = (   0.1153846   0.1923077  -0.2692308), wk =   0.0109240
        k(  105) = (   0.1153846   0.1923077  -0.1923077), wk =   0.0109240
        k(  106) = (   0.1153846   0.1923077  -0.1153846), wk =   0.0109240
        k(  107) = (   0.1153846   0.2692308   0.2692308), wk =   0.0054620
        k(  108) = (   0.1153846   0.2692308   0.3461538), wk =   0.0109240
        k(  109) = (   0.1153846   0.2692308   0.4230769), wk =   0.0109240
        k(  110) = (   0.1153846   0.2692308  -0.5000000), wk =   0.0109240
        k(  111) = (   0.1153846   0.2692308  -0.4230769), wk =   0.0109240
        k(  112) = (   0.1153846   0.2692308  -0.3461538), wk =   0.0109240
        k(  113) = (   0.1153846   0.2692308  -0.2692308), wk =   0.0109240
        k(  114) = (   0.1153846   0.2692308  -0.1923077), wk =   0.0109240
        k(  115) = (   0.1153846   0.2692308  -0.1153846), wk =   0.0109240
        k(  116) = (   0.1153846   0.3461538   0.3461538), wk =   0.0054620
        k(  117) = (   0.1153846   0.3461538   0.4230769), wk =   0.0109240
        k(  118) = (   0.1153846   0.3461538  -0.5000000), wk =   0.0109240
        k(  119) = (   0.1153846   0.3461538  -0.4230769), wk =   0.0109240
        k(  120) = (   0.1153846   0.3461538  -0.3461538), wk =   0.0109240
        k(  121) = (   0.1153846   0.3461538  -0.2692308), wk =   0.0109240
        k(  122) = (   0.1153846   0.3461538  -0.1923077), wk =   0.0109240
        k(  123) = (   0.1153846   0.3461538  -0.1153846), wk =   0.0109240
        k(  124) = (   0.1153846   0.4230769   0.4230769), wk =   0.0054620
        k(  125) = (   0.1153846   0.4230769  -0.5000000), wk =   0.0109240
        k(  126) = (   0.1153846   0.4230769  -0.4230769), wk =   0.0109240
        k(  127) = (   0.1153846   0.4230769  -0.3461538), wk =   0.0109240
        k(  128) = (   0.1153846   0.4230769  -0.2692308), wk =   0.0109240
        k(  129) = (   0.1153846   0.4230769  -0.1923077), wk =   0.0109240
        k(  130) = (   0.1153846   0.4230769  -0.1153846), wk =   0.0109240
        k(  131) = (   0.1153846  -0.5000000  -0.5000000), wk =   0.0054620
        k(  132) = (   0.1153846  -0.5000000  -0.4230769), wk =   0.0109240
        k(  133) = (   0.1153846  -0.5000000  -0.3461538), wk =   0.0109240
        k(  134) = (   0.1153846  -0.5000000  -0.2692308), wk =   0.0109240
        k(  135) = (   0.1153846  -0.5000000  -0.1923077), wk =   0.0109240
        k(  136) = (   0.1153846  -0.5000000  -0.1153846), wk =   0.0054620
        k(  137) = (   0.1153846  -0.4230769  -0.4230769), wk =   0.0054620
        k(  138) = (   0.1153846  -0.4230769  -0.3461538), wk =   0.0109240
        k(  139) = (   0.1153846  -0.4230769  -0.2692308), wk =   0.0109240
        k(  140) = (   0.1153846  -0.4230769  -0.1923077), wk =   0.0109240
        k(  141) = (   0.1153846  -0.3461538  -0.3461538), wk =   0.0054620
        k(  142) = (   0.1153846  -0.3461538  -0.2692308), wk =   0.0109240
        k(  143) = (   0.1153846  -0.3461538  -0.1923077), wk =   0.0109240
        k(  144) = (   0.1153846  -0.2692308  -0.2692308), wk =   0.0054620
        k(  145) = (   0.1153846  -0.2692308  -0.1923077), wk =   0.0109240
        k(  146) = (   0.1153846  -0.1923077  -0.1923077), wk =   0.0054620
        k(  147) = (   0.1923077   0.1923077   0.1923077), wk =   0.0018207
        k(  148) = (   0.1923077   0.1923077   0.2692308), wk =   0.0054620
        k(  149) = (   0.1923077   0.1923077   0.3461538), wk =   0.0054620
        k(  150) = (   0.1923077   0.1923077   0.4230769), wk =   0.0054620
        k(  151) = (   0.1923077   0.1923077  -0.5000000), wk =   0.0054620
        k(  152) = (   0.1923077   0.1923077  -0.4230769), wk =   0.0054620
        k(  153) = (   0.1923077   0.1923077  -0.3461538), wk =   0.0054620
        k(  154) = (   0.1923077   0.1923077  -0.2692308), wk =   0.0054620
        k(  155) = (   0.1923077   0.1923077  -0.1923077), wk =   0.0054620
        k(  156) = (   0.1923077   0.2692308   0.2692308), wk =   0.0054620
        k(  157) = (   0.1923077   0.2692308   0.3461538), wk =   0.0109240
        k(  158) = (   0.1923077   0.2692308   0.4230769), wk =   0.0109240
        k(  159) = (   0.1923077   0.2692308  -0.5000000), wk =   0.0109240
        k(  160) = (   0.1923077   0.2692308  -0.4230769), wk =   0.0109240
        k(  161) = (   0.1923077   0.2692308  -0.3461538), wk =   0.0109240
        k(  162) = (   0.1923077   0.2692308  -0.2692308), wk =   0.0109240
        k(  163) = (   0.1923077   0.2692308  -0.1923077), wk =   0.0109240
        k(  164) = (   0.1923077   0.3461538   0.3461538), wk =   0.0054620
        k(  165) = (   0.1923077   0.3461538   0.4230769), wk =   0.0109240
        k(  166) = (   0.1923077   0.3461538  -0.5000000), wk =   0.0109240
        k(  167) = (   0.1923077   0.3461538  -0.4230769), wk =   0.0109240
        k(  168) = (   0.1923077   0.3461538  -0.3461538), wk =   0.0109240
        k(  169) = (   0.1923077   0.3461538  -0.2692308), wk =   0.0109240
        k(  170) = (   0.1923077   0.3461538  -0.1923077), wk =   0.0109240
        k(  171) = (   0.1923077   0.4230769   0.4230769), wk =   0.0054620
        k(  172) = (   0.1923077   0.4230769  -0.5000000), wk =   0.0109240
        k(  173) = (   0.1923077   0.4230769  -0.4230769), wk =   0.0109240
        k(  174) = (   0.1923077   0.4230769  -0.3461538), wk =   0.0109240
        k(  175) = (   0.1923077   0.4230769  -0.2692308), wk =   0.0109240
        k(  176) = (   0.1923077   0.4230769  -0.1923077), wk =   0.0109240
        k(  177) = (   0.1923077  -0.5000000  -0.5000000), wk =   0.0054620
        k(  178) = (   0.1923077  -0.5000000  -0.4230769), wk =   0.0109240
        k(  179) = (   0.1923077  -0.5000000  -0.3461538), wk =   0.0109240
        k(  180) = (   0.1923077  -0.5000000  -0.2692308), wk =   0.0109240
        k(  181) = (   0.1923077  -0.5000000  -0.1923077), wk =   0.0054620
        k(  182) = (   0.1923077  -0.4230769  -0.4230769), wk =   0.0054620
        k(  183) = (   0.1923077  -0.4230769  -0.3461538), wk =   0.0109240
        k(  184) = (   0.1923077  -0.4230769  -0.2692308), wk =   0.0109240
        k(  185) = (   0.1923077  -0.3461538  -0.3461538), wk =   0.0054620
        k(  186) = (   0.1923077  -0.3461538  -0.2692308), wk =   0.0109240
        k(  187) = (   0.1923077  -0.2692308  -0.2692308), wk =   0.0054620
        k(  188) = (   0.2692308   0.2692308   0.2692308), wk =   0.0018207
        k(  189) = (   0.2692308   0.2692308   0.3461538), wk =   0.0054620
        k(  190) = (   0.2692308   0.2692308   0.4230769), wk =   0.0054620
        k(  191) = (   0.2692308   0.2692308  -0.5000000), wk =   0.0054620
        k(  192) = (   0.2692308   0.2692308  -0.4230769), wk =   0.0054620
        k(  193) = (   0.2692308   0.2692308  -0.3461538), wk =   0.0054620
        k(  194) = (   0.2692308   0.2692308  -0.2692308), wk =   0.0054620
        k(  195) = (   0.2692308   0.3461538   0.3461538), wk =   0.0054620
        k(  196) = (   0.2692308   0.3461538   0.4230769), wk =   0.0109240
        k(  197) = (   0.2692308   0.3461538  -0.5000000), wk =   0.0109240
        k(  198) = (   0.2692308   0.3461538  -0.4230769), wk =   0.0109240
        k(  199) = (   0.2692308   0.3461538  -0.3461538), wk =   0.0109240
        k(  200) = (   0.2692308   0.3461538  -0.2692308), wk =   0.0109240
        k(  201) = (   0.2692308   0.4230769   0.4230769), wk =   0.0054620
        k(  202) = (   0.2692308   0.4230769  -0.5000000), wk =   0.0109240
        k(  203) = (   0.2692308   0.4230769  -0.4230769), wk =   0.0109240
        k(  204) = (   0.2692308   0.4230769  -0.3461538), wk =   0.0109240
        k(  205) = (   0.2692308   0.4230769  -0.2692308), wk =   0.0109240
        k(  206) = (   0.2692308  -0.5000000  -0.5000000), wk =   0.0054620
        k(  207) = (   0.2692308  -0.5000000  -0.4230769), wk =   0.0109240
        k(  208) = (   0.2692308  -0.5000000  -0.3461538), wk =   0.0109240
        k(  209) = (   0.2692308  -0.5000000  -0.2692308), wk =   0.0054620
        k(  210) = (   0.2692308  -0.4230769  -0.4230769), wk =   0.0054620
        k(  211) = (   0.2692308  -0.4230769  -0.3461538), wk =   0.0109240
        k(  212) = (   0.2692308  -0.3461538  -0.3461538), wk =   0.0054620
        k(  213) = (   0.3461538   0.3461538   0.3461538), wk =   0.0018207
        k(  214) = (   0.3461538   0.3461538   0.4230769), wk =   0.0054620
        k(  215) = (   0.3461538   0.3461538  -0.5000000), wk =   0.0054620
        k(  216) = (   0.3461538   0.3461538  -0.4230769), wk =   0.0054620
        k(  217) = (   0.3461538   0.3461538  -0.3461538), wk =   0.0054620
        k(  218) = (   0.3461538   0.4230769   0.4230769), wk =   0.0054620
        k(  219) = (   0.3461538   0.4230769  -0.5000000), wk =   0.0109240
        k(  220) = (   0.3461538   0.4230769  -0.4230769), wk =   0.0109240
        k(  221) = (   0.3461538   0.4230769  -0.3461538), wk =   0.0109240
        k(  222) = (   0.3461538  -0.5000000  -0.5000000), wk =   0.0054620
        k(  223) = (   0.3461538  -0.5000000  -0.4230769), wk =   0.0109240
        k(  224) = (   0.3461538  -0.5000000  -0.3461538), wk =   0.0054620
        k(  225) = (   0.3461538  -0.4230769  -0.4230769), wk =   0.0054620
        k(  226) = (   0.4230769   0.4230769   0.4230769), wk =   0.0018207
        k(  227) = (   0.4230769   0.4230769  -0.5000000), wk =   0.0054620
        k(  228) = (   0.4230769   0.4230769  -0.4230769), wk =   0.0054620
        k(  229) = (   0.4230769  -0.5000000  -0.5000000), wk =   0.0054620
        k(  230) = (   0.4230769  -0.5000000  -0.4230769), wk =   0.0054620
        k(  231) = (  -0.5000000  -0.5000000  -0.5000000), wk =   0.0009103

     Dense  grid:     2565 G-vectors     FFT dimensions: (  20,  20,  20)

     Largest allocated arrays     est. size (Mb)     dimensions
        Kohn-Sham Wavefunctions         0.07 Mb     (     332,   13)
        NL pseudopotentials             0.09 Mb     (     332,   18)
        Each V/rho on FFT grid          0.12 Mb     (    8000)
        Each G-vector array             0.02 Mb     (    2565)
        G-vector shells                 0.00 Mb     (      62)
     Largest temporary arrays     est. size (Mb)     dimensions
        Auxiliary wavefunctions         0.26 Mb     (     332,   52)
        Each subspace H/S matrix        0.04 Mb     (      52,   52)
        Each <psi_i|beta_j> matrix      0.00 Mb     (      18,   13)
        Arrays for rho mixing           0.98 Mb     (    8000,    8)

     Check: negative/imaginary core charge=   -0.000044    0.000000

     Initial potential from superposition of free atoms

     starting charge   17.99977, renormalised to   18.00000
     Starting wfc are   10 randomized atomic wfcs +    3 random wfc

     total cpu time spent up to now is        6.3 secs

     per-process dynamical memory:    23.3 Mb

     Self-consistent Calculation

     iteration #  1     ecut=    40.00 Ry     beta=0.70
     Davidson diagonalization with overlap
     ethr =  1.00E-02,  avg # of iterations =  4.2

     Threshold (ethr) on eigenvalues was too large:
     Diagonalizing with lowered threshold

     Davidson diagonalization with overlap
     ethr =  1.94E-04,  avg # of iterations =  1.2

     total cpu time spent up to now is       16.8 secs

     total energy              =    -338.86780868 Ry
     Harris-Foulkes estimate   =    -338.88923336 Ry
     estimated scf accuracy    <       0.03613742 Ry

     iteration #  2     ecut=    40.00 Ry     beta=0.70
     Davidson diagonalization with overlap
     ethr =  2.01E-04,  avg # of iterations =  2.0

     total cpu time spent up to now is       22.0 secs

     total energy              =    -338.86006470 Ry
     Harris-Foulkes estimate   =    -338.89653595 Ry
     estimated scf accuracy    <       0.09457956 Ry

     iteration #  3     ecut=    40.00 Ry     beta=0.70
     Davidson diagonalization with overlap
     ethr =  2.01E-04,  avg # of iterations =  2.0

     total cpu time spent up to now is       26.6 secs

     total energy              =    -338.87891890 Ry
     Harris-Foulkes estimate   =    -338.88015561 Ry
     estimated scf accuracy    <       0.00453847 Ry

     iteration #  4     ecut=    40.00 Ry     beta=0.70
     Davidson diagonalization with overlap
     ethr =  2.52E-05,  avg # of iterations =  2.0

     total cpu time spent up to now is       31.6 secs

     total energy              =    -338.87952876 Ry
     Harris-Foulkes estimate   =    -338.87952371 Ry
     estimated scf accuracy    <       0.00002266 Ry

     iteration #  5     ecut=    40.00 Ry     beta=0.70
     Davidson diagonalization with overlap
     ethr =  1.26E-07,  avg # of iterations =  2.8

     total cpu time spent up to now is       39.6 secs

     total energy              =    -338.87953862 Ry
     Harris-Foulkes estimate   =    -338.87953909 Ry
     estimated scf accuracy    <       0.00000141 Ry

     iteration #  6     ecut=    40.00 Ry     beta=0.70
     Davidson diagonalization with overlap
     ethr =  7.81E-09,  avg # of iterations =  1.3

     total cpu time spent up to now is       44.2 secs

     End of self-consistent calculation

          k =-0.0385 0.0385 0.0385 (   331 PWs)   bands (ev):

   -85.6238 -45.6180 -45.6168 -45.6168   8.7358  15.5380  15.5664  15.5664
    16.6179  16.6179  40.9564  44.0276  44.8176

     occupation numbers 
     1.0000   1.0000   1.0000   1.0000   1.0000   1.0000   1.0000   1.0000
     1.0002   1.0002   0.0000   0.0000   0.0000

          k =-0.1154 0.1154-0.0385 (   322 PWs)   bands (ev):

   -85.6181 -45.5771 -45.5402 -45.4383   9.0562  15.5401  15.6506  15.7076
    16.6529  16.6861  39.7034  41.9391  43.7025

     occupation numbers 
     1.0000   1.0000   1.0000   1.0000   1.0000   1.0000   1.0000   1.0000
     1.0005   1.0008   0.0000   0.0000   0.0000

          k =-0.1923 0.1923-0.1154 (   316 PWs)   bands (ev):

   -85.6108 -45.4914 -45.4775 -45.4277   9.7956  15.3915  15.8205  15.8374
    16.6428  16.7985  36.1556  40.8651  43.2417

     occupation numbers 
     1.0000   1.0000   1.0000   1.0000   1.0000   1.0000   1.0000   1.0000
     1.0004   1.0049   0.0000   0.0000   0.0000

          k =-0.2692 0.2692-0.1923 (   312 PWs)   bands (ev):

   -85.6015 -45.4450 -45.4361 -45.3984  10.8729  15.2499  15.8584  15.9093
    16.8095  17.0118  32.3514  40.2120  42.5731

     occupation numbers 
     1.0000   1.0000   1.0000   1.0000   1.0000   1.0000   1.0000   1.0000
     1.0057   1.0476   0.0000   0.0000   0.0000

          k =-0.3462 0.3462-0.2692 (   313 PWs)   bands (ev):

   -85.5931 -45.4841 -45.4590 -45.3655  12.0513  15.3407  15.7490  15.8367
    17.1451  17.2860  28.7930  39.7228  41.8280

     occupation numbers 
     1.0000   1.0000   1.0000   1.0000   1.0000   1.0000   1.0000   1.0000
     1.0832   1.0002   0.0000   0.0000   0.0000

          k =-0.4231 0.4231-0.3462 (   317 PWs)   bands (ev):

   -85.5874 -45.5903 -45.4441 -45.4101  12.8803  15.6950  15.7141  16.0282
    17.2987  17.5427  25.7294  39.4245  41.3668

     occupation numbers 
     1.0000   1.0000   1.0000   1.0000   1.0000   1.0000   1.0000   1.0000
     0.9818   0.3861   0.0000   0.0000   0.0000

          k = 0.5000-0.5000 0.5769 (   319 PWs)   bands (ev):

   -85.5843 -45.5474 -45.4991 -45.4591  13.1877  15.5901  15.6470  16.7767
    17.4290  17.8602  23.8445  39.3169  41.3956

     occupation numbers 
     1.0000   1.0000   1.0000   1.0000   1.0000   1.0000   1.0000   1.0035
     0.6923   0.0147   0.0000   0.0000   0.0000

          k = 0.4231-0.4231 0.5000 (   321 PWs)   bands (ev):

   -85.5858 -45.5784 -45.5085 -45.4969  13.1189  15.5746  15.6453  16.5948
    17.4448  17.6866  24.2798  39.4545  41.2537

     occupation numbers 
     1.0000   1.0000   1.0000   1.0000   1.0000   1.0000   1.0000   1.0002
     0.6492   0.1198   0.0000   0.0000   0.0000

          k = 0.3462-0.3462 0.4231 (   315 PWs)   bands (ev):

   -85.5888 -45.5728 -45.4287 -45.3728  12.6718  15.6963  15.7546  15.7740
    17.3509  17.3599  26.6682  39.8561  41.0367

     occupation numbers 
     1.0000   1.0000   1.0000   1.0000   1.0000   1.0000   1.0000   1.0000
     0.8853   0.8657   0.0000   0.0000   0.0000

          k = 0.2692-0.2692 0.3462 (   311 PWs)   bands (ev):

   -85.5952 -45.4612 -45.4052 -45.3707  11.6780  15.2650  15.8289  15.8612
    17.0821  17.1544  29.9390  40.4508  41.2008

     occupation numbers 
     1.0000   1.0000   1.0000   1.0000   1.0000   1.0000   1.0000   1.0000
     1.0711   1.0833   0.0000   0.0000   0.0000

          k = 0.1923-0.1923 0.2692 (   315 PWs)   bands (ev):

   -85.6054 -45.4948 -45.4589 -45.4292  10.4797  15.2733  15.8605  15.8772
    16.7157  16.9072  33.5987  41.0972  41.6891

     occupation numbers 
     1.0000   1.0000   1.0000   1.0000   1.0000   1.0000   1.0000   1.0000
     1.0014   1.0186   0.0000   0.0000   0.0000

          k = 0.1154-0.1154 0.1923 (   317 PWs)   bands (ev):

   -85.6132 -45.5045 -45.4843 -45.4260   9.5080  15.4354  15.7855  15.8147
    16.6419  16.7570  37.4353  41.7049  42.4981

     occupation numbers 
     1.0000   1.0000   1.0000   1.0000   1.0000   1.0000   1.0000   1.0000
     1.0004   1.0026   0.0000   0.0000   0.0000

          k = 0.0385-0.0385 0.1154 (   325 PWs)   bands (ev):

   -85.6204 -45.5924 -45.5613 -45.4972   8.9001  15.5155  15.6429  15.6430
    16.6559  16.6694  40.4844  42.9657  43.5904

     occupation numbers 
     1.0000   1.0000   1.0000   1.0000   1.0000   1.0000   1.0000   1.0000
     1.0005   1.0006   0.0000   0.0000   0.0000

          k =-0.0385 0.1923 0.0385 (   320 PWs)   bands (ev):

   -85.6162 -45.5494 -45.5174 -45.4265   9.2093  15.4330  15.7609  15.7921
    16.5852  16.7465  39.7487  41.8188  42.1544

     occupation numbers 
     1.0000   1.0000   1.0000   1.0000   1.0000   1.0000   1.0000   1.0000
     1.0001   1.0022   0.0000   0.0000   0.0000

          k =-0.1154 0.2692-0.0385 (   316 PWs)   bands (ev):

   -85.6105 -45.5337 -45.4560 -45.4003   9.7979  15.3313  15.8851  15.9439
    16.4897  16.8482  37.5972  39.4868  42.1388

     occupation numbers 
     1.0000   1.0000   1.0000   1.0000   1.0000   1.0000   1.0000   1.0000
     1.0000   1.0094   0.0000   0.0000   0.0000

          k =-0.1923 0.3462-0.1154 (   313 PWs)   bands (ev):

   -85.6024 -45.4836 -45.4326 -45.3947  10.7559  15.1555  15.8825  16.0260
    16.6395  17.0703  33.8087  38.6083  41.4297

     occupation numbers 
     1.0000   1.0000   1.0000   1.0000   1.0000   1.0000   1.0000   1.0000
     1.0004   1.0675   0.0000   0.0000   0.0000

          k =-0.2692 0.4231-0.1923 (   315 PWs)   bands (ev):

   -85.5947 -45.5006 -45.4674 -45.4166  11.9156  15.0947  15.7264  15.9800
    16.9895  17.3429  30.1361  38.0940  40.5668

     occupation numbers 
     1.0000   1.0000   1.0000   1.0000   1.0000   1.0000   1.0000   1.0000
     1.0402   0.9022   0.0000   0.0000   0.0000

          k =-0.3462 0.5000-0.2692 (   315 PWs)   bands (ev):

   -85.5874 -45.5677 -45.4490 -45.3721  12.8885  15.4126  15.6224  15.9029
    17.3572  17.7716  26.8528  37.8678  39.6858

     occupation numbers 
     1.0000   1.0000   1.0000   1.0000   1.0000   1.0000   1.0000   1.0000
     0.8716   0.0472   0.0000   0.0000   0.0000

          k = 0.5769-0.4231 0.6538 (   316 PWs)   bands (ev):

   -85.5830 -45.5177 -45.4893 -45.4130  13.3336  15.4378  15.8010  16.0672
    17.4582  18.5816  24.3937  37.7166  39.1629

     occupation numbers 
     1.0000   1.0000   1.0000   1.0000   1.0000   1.0000   1.0000   1.0000
     0.6121   0.0000   0.0000   0.0000   0.0000

          k = 0.5000-0.3462 0.5769 (   319 PWs)   bands (ev):

   -85.5834 -45.5634 -45.5032 -45.4587  13.3687  15.4228  15.7866  16.1490
    17.4199  18.8105  23.8832  37.3289  39.4728

     occupation numbers 
     1.0000   1.0000   1.0000   1.0000   1.0000   1.0000   1.0000   1.0000
     0.7168   0.0000   0.0000   0.0000   0.0000

          k = 0.4231-0.2692 0.5000 (   315 PWs)   bands (ev):

   -85.5856 -45.5597 -45.4418 -45.3892  13.1032  15.5161  15.7112  15.8554
    17.2736  18.1255  25.9173  37.0407  40.3360

     occupation numbers 
     1.0000   1.0000   1.0000   1.0000   1.0000   1.0000   1.0000   1.0000
     1.0164   0.0001   0.0000   0.0000   0.0000

          k = 0.3462-0.1923 0.4231 (   314 PWs)   bands (ev):

   -85.5919 -45.5276 -45.4494 -45.3799  12.2993  15.1997  15.6902  15.9498
    17.0149  17.5360  28.9930  37.0580  41.4822

     occupation numbers 
     1.0000   1.0000   1.0000   1.0000   1.0000   1.0000   1.0000   1.0000
     1.0486   0.4028   0.0000   0.0000   0.0000

          k = 0.2692-0.1154 0.3462 (   314 PWs)   bands (ev):

   -85.6002 -45.4869 -45.4428 -45.4231  11.1351  15.1477  15.8238  16.0148
    16.6417  17.2025  32.5550  37.4299  42.7327

     occupation numbers 
     1.0000   1.0000   1.0000   1.0000   1.0000   1.0000   1.0000   1.0000
     1.0004   1.0735   0.0000   0.0000   0.0000

          k = 0.1923-0.0385 0.2692 (   317 PWs)   bands (ev):

   -85.6089 -45.5182 -45.4897 -45.4340  10.0773  15.3055  15.8735  15.8977
    16.5170  16.8929  36.3124  38.1896  43.6030

     occupation numbers 
     1.0000   1.0000   1.0000   1.0000   1.0000   1.0000   1.0000   1.0000
     1.0000   1.0159   0.0000   0.0000   0.0000

          k = 0.1154 0.0385 0.1923 (   319 PWs)   bands (ev):

   -85.6149 -45.5455 -45.5343 -45.3938   9.3572  15.4771  15.7475  15.8037
    16.5850  16.7385  38.6774  40.7101  43.1066

     occupation numbers 
     1.0000   1.0000   1.0000   1.0000   1.0000   1.0000   1.0000   1.0000
     1.0001   1.0020   0.0000   0.0000   0.0000

          k =-0.0385 0.3462 0.0385 (   312 PWs)   bands (ev):

   -85.6057 -45.4939 -45.3827 -45.3783  10.2276  15.1623  16.0882  16.1797
    16.3549  16.9317  37.9122  39.3082  39.8105

     occupation numbers 
     1.0000   1.0000   1.0000   1.0000   1.0000   1.0000   1.0000   1.0000
     1.0000   1.0240   0.0000   0.0000   0.0000

          k =-0.1154 0.4231-0.0385 (   311 PWs)   bands (ev):

   -85.5994 -45.5001 -45.4336 -45.3152  11.0163  14.9312  16.0300  16.3261
    16.5500  17.0950  35.5044  37.1317  39.8625

     occupation numbers 
     1.0000   1.0000   1.0000   1.0000   1.0000   1.0000   1.0000   1.0000
     1.0001   1.0748   0.0000   0.0000   0.0000

          k =-0.1923 0.5000-0.1154 (   318 PWs)   bands (ev):

   -85.5945 -45.5653 -45.4909 -45.4606  12.0554  14.7868  15.7286  16.2885
    16.9698  17.3037  31.7729  36.4288  38.3851

     occupation numbers 
     1.0000   1.0000   1.0000   1.0000   1.0000   1.0000   1.0000   1.0000
     1.0342   0.9739   0.0000   0.0000   0.0000

          k =-0.2692 0.5769-0.1923 (   318 PWs)   bands (ev):

   -85.5877 -45.6009 -45.4864 -45.4481  13.0538  14.8312  15.5236  16.2123
    17.3713  17.9645  28.3232  36.0078  37.0606

     occupation numbers 
     1.0000   1.0000   1.0000   1.0000   1.0000   1.0000   1.0000   1.0000
     0.8397   0.0029   0.0000   0.0000   0.0000

          k = 0.6538-0.3462 0.7308 (   317 PWs)   bands (ev):

   -85.5822 -45.5814 -45.4675 -45.4417  13.6205  14.9967  15.5465  16.1456
    17.4878  19.2102  25.3853  35.1804  36.8091

     occupation numbers 
     1.0000   1.0000   1.0000   1.0000   1.0000   1.0000   1.0000   1.0000
     0.5304   0.0000   0.0000   0.0000   0.0000

          k = 0.5769-0.2692 0.6538 (   312 PWs)   bands (ev):

   -85.5786 -45.4871 -45.4362 -45.3804  13.7924  15.0698  15.7409  16.0888
    17.4338  20.3033  23.8869  34.2427  37.4666

     occupation numbers 
     1.0000   1.0000   1.0000   1.0000   1.0000   1.0000   1.0000   1.0000
     0.6793   0.0000   0.0000   0.0000   0.0000

          k = 0.5000-0.1923 0.5769 (   316 PWs)   bands (ev):

   -85.5818 -45.5831 -45.4563 -45.3968  13.6623  15.1656  15.4955  16.0898
    17.2494  19.3767  25.4039  33.6233  38.6021

     occupation numbers 
     1.0000   1.0000   1.0000   1.0000   1.0000   1.0000   1.0000   1.0000
     1.0424   0.0000   0.0000   0.0000   0.0000

          k = 0.4231-0.1154 0.5000 (   314 PWs)   bands (ev):

   -85.5866 -45.5569 -45.4512 -45.3710  13.1295  15.0630  15.4335  16.1794
    16.9390  18.3363  28.3597  33.4128  40.0952

     occupation numbers 
     1.0000   1.0000   1.0000   1.0000   1.0000   1.0000   1.0000   1.0000
     1.0258   0.0000   0.0000   0.0000   0.0000

          k = 0.3462-0.0385 0.4231 (   316 PWs)   bands (ev):

   -85.5944 -45.5411 -45.4941 -45.4072  12.0875  14.9898  15.6448  16.2940
    16.5148  17.6389  31.7567  33.6660  41.8116

     occupation numbers 
     1.0000   1.0000   1.0000   1.0000   1.0000   1.0000   1.0000   1.0000
     1.0000   0.1866   0.0000   0.0000   0.0000

          k = 0.2692 0.0385 0.3462 (   314 PWs)   bands (ev):

   -85.6010 -45.5068 -45.4459 -45.4039  11.0177  15.1231  15.8244  16.1091
    16.4818  17.2456  33.9711  35.8258  43.4707

     occupation numbers 
     1.0000   1.0000   1.0000   1.0000   1.0000   1.0000   1.0000   1.0000
     1.0000   1.0459   0.0000   0.0000   0.0000

          k = 0.1923 0.1154 0.2692 (   316 PWs)   bands (ev):

   -85.6076 -45.4911 -45.4850 -45.4340  10.2127  15.2822  15.8663  15.8970
    16.5995  16.9028  34.9411  39.7373  42.5358

     occupation numbers 
     1.0000   1.0000   1.0000   1.0000   1.0000   1.0000   1.0000   1.0000
     1.0002   1.0178   0.0000   0.0000   0.0000

          k =-0.0385 0.5000 0.0385 (   311 PWs)   bands (ev):

   -85.5953 -45.4419 -45.4333 -45.4205  11.6117  14.7101  16.0672  16.5721
    16.6564  17.1451  35.8261  36.7215  37.5507

     occupation numbers 
     1.0000   1.0000   1.0000   1.0000   1.0000   1.0000   1.0000   1.0001
     1.0005   1.0832   0.0000   0.0000   0.0000

          k =-0.1154 0.5769-0.0385 (   313 PWs)   bands (ev):

   -85.5898 -45.5597 -45.4362 -45.3869  12.4073  14.5276  15.9497  16.7618
    17.0266  17.3085  33.5857  34.9336  36.0275

     occupation numbers 
     1.0000   1.0000   1.0000   1.0000   1.0000   1.0000   1.0000   1.0028
     1.0527   0.9661   0.0000   0.0000   0.0000

          k =-0.1923 0.6538-0.1154 (   317 PWs)   bands (ev):

   -85.5849 -45.6105 -45.4786 -45.4379  13.1962  14.4318  15.7541  16.7003
    17.3690  18.0995  30.1171  33.8987  34.8902

     occupation numbers 
     1.0000   1.0000   1.0000   1.0000   1.0000   1.0000   1.0000   1.0011
     0.8449   0.0002   0.0000   0.0000   0.0000

          k = 0.7308-0.2692 0.8077 (   314 PWs)   bands (ev):

   -85.5788 -45.4950 -45.4771 -45.4336  13.7943  14.5159  15.6074  16.5920
    17.5151  19.6797  26.9440  32.4957  34.9297

     occupation numbers 
     1.0000   1.0000   1.0000   1.0000   1.0000   1.0000   1.0000   1.0001
     0.4569   0.0000   0.0000   0.0000   0.0000

          k = 0.6538-0.1923 0.7308 (   312 PWs)   bands (ev):

   -85.5758 -45.4743 -45.4280 -45.4189  14.1115  14.6350  15.5295  16.4982
    17.4889  21.4841  24.4520  31.3277  35.5999

     occupation numbers 
     1.0000   1.0000   1.0000   1.0000   1.0000   1.0000   1.0000   1.0000
     0.5274   0.0000   0.0000   0.0000   0.0000

          k = 0.5769-0.1154 0.6538 (   314 PWs)   bands (ev):

   -85.5770 -45.4997 -45.4523 -45.4137  14.2016  14.7351  15.3424  16.4274
    17.2683  21.1494  25.0738  30.5429  36.7561

     occupation numbers 
     1.0000   1.0000   1.0000   1.0000   1.0000   1.0000   1.0000   1.0000
     1.0227   0.0000   0.0000   0.0000   0.0000

          k = 0.5000-0.0385 0.5769 (   315 PWs)   bands (ev):

   -85.5812 -45.5048 -45.4876 -45.4171  13.9235  14.9867  15.0791  16.4089
    16.9433  19.5587  27.8295  30.2960  38.2806

     occupation numbers 
     1.0000   1.0000   1.0000   1.0000   1.0000   1.0000   1.0000   1.0000
     1.0269   0.0000   0.0000   0.0000   0.0000

          k = 0.4231 0.0385 0.5000 (   316 PWs)   bands (ev):

   -85.5875 -45.5565 -45.4908 -45.4071  13.1226  14.9512  15.3770  16.3481
    16.7052  18.3711  29.7182  31.8091  40.0381

     occupation numbers 
     1.0000   1.0000   1.0000   1.0000   1.0000   1.0000   1.0000   1.0000
     1.0012   0.0000   0.0000   0.0000   0.0000

          k = 0.3462 0.1154 0.4231 (   317 PWs)   bands (ev):

   -85.5940 -45.5578 -45.4787 -45.4320  12.1581  15.0546  15.6491  16.0747
    16.7423  17.5993  30.3503  35.2937  41.7206

     occupation numbers 
     1.0000   1.0000   1.0000   1.0000   1.0000   1.0000   1.0000   1.0000
     1.0021   0.2586   0.0000   0.0000   0.0000

          k = 0.2692 0.1923 0.3462 (   312 PWs)   bands (ev):

   -85.5978 -45.4666 -45.4399 -45.3705  11.3598  15.1939  15.8242  15.9207
    16.9000  17.1651  31.1979  39.1398  41.7969

     occupation numbers 
     1.0000   1.0000   1.0000   1.0000   1.0000   1.0000   1.0000   1.0000
     1.0173   1.0827   0.0000   0.0000   0.0000

          k =-0.0385 0.6538 0.0385 (   319 PWs)   bands (ev):

   -85.5874 -45.6301 -45.5084 -45.4822  12.8186  14.2840  16.3964  16.9788
    17.1315  17.2701  33.3854  34.0634  34.5748

     occupation numbers 
     1.0000   1.0000   1.0000   1.0000   1.0000   1.0000   1.0000   1.0369
     1.0820   1.0206   0.0000   0.0000   0.0000

          k =-0.1154 0.7308-0.0385 (   320 PWs)   bands (ev):

   -85.5827 -45.6256 -45.5501 -45.4895  13.2236  14.1508  16.4748  17.0988
    17.3426  18.0793  31.4526  32.2319  33.4643

     occupation numbers 
     1.0000   1.0000   1.0000   1.0000   1.0000   1.0000   1.0000   1.0757
     0.9027   0.0003   0.0000   0.0000   0.0000

          k = 0.8077-0.1923 0.8846 (   317 PWs)   bands (ev):

   -85.5772 -45.5510 -45.5210 -45.4595  13.5921  14.1591  16.2561  17.0260
    17.5245  19.8062  28.8399  30.1879  33.4124

     occupation numbers 
     1.0000   1.0000   1.0000   1.0000   1.0000   1.0000   1.0000   1.0525
     0.4321   0.0000   0.0000   0.0000   0.0000

          k = 0.7308-0.1154 0.8077 (   314 PWs)   bands (ev):

   -85.5738 -45.4942 -45.4887 -45.4158  13.9343  14.2903  15.9434  16.8990
    17.5301  21.9406  25.9782  28.9718  33.9819

     occupation numbers 
     1.0000   1.0000   1.0000   1.0000   1.0000   1.0000   1.0000   1.0171
     0.4177   0.0000   0.0000   0.0000   0.0000

          k = 0.6538-0.0385 0.7308 (   316 PWs)   bands (ev):

   -85.5745 -45.5310 -45.4758 -45.4377  14.2536  14.4377  15.5345  16.7359
    17.3360  23.1887  24.4879  28.3441  35.0990

     occupation numbers 
     1.0000   1.0000   1.0000   1.0000   1.0000   1.0000   1.0000   1.0019
     0.9161   0.0000   0.0000   0.0000   0.0000

          k = 0.5769 0.0385 0.6538 (   317 PWs)   bands (ev):

   -85.5774 -45.5546 -45.5075 -45.4052  14.3252  14.6602  15.1834  16.5525
    17.1399  21.2019  26.0521  29.1268  36.6147

     occupation numbers 
[...]

          k =-0.1923-1.0385 0.1923 (   318 PWs)   bands (ev):

   -85.5740 -45.5468 -45.5199 -45.4857  13.7422  14.1119  16.3263  17.0814
    17.5376  22.1145  26.6756  27.9133  33.7010

     occupation numbers 
     1.0000   1.0000   1.0000   1.0000   1.0000   1.0000   1.0000   1.0709
     0.3988   0.0000   0.0000   0.0000   0.0000

          k =-0.2692-0.9615 0.1154 (   317 PWs)   bands (ev):

   -85.5734 -45.5205 -45.5107 -45.4783  13.7953  14.1785  16.1466  17.0521
    17.6157  22.3527  26.8176  27.9389  32.2262

     occupation numbers 
     1.0000   1.0000   1.0000   1.0000   1.0000   1.0000   1.0000   1.0615
     0.2270   0.0000   0.0000   0.0000   0.0000

          k =-0.3462-0.8846 0.0385 (   313 PWs)   bands (ev):

   -85.5727 -45.5182 -45.4591 -45.3796  13.9905  14.4109  15.6657  16.9805
    17.6156  22.1415  27.5382  28.7727  30.2870

     occupation numbers 
     1.0000   1.0000   1.0000   1.0000   1.0000   1.0000   1.0000   1.0374
     0.2272   0.0000   0.0000   0.0000   0.0000

          k =-0.1923-0.8846 0.1923 (   316 PWs)   bands (ev):

   -85.5746 -45.5075 -45.5007 -45.4787  13.7508  14.1567  16.2355  17.0066
    17.5650  21.3147  27.1080  28.7842  33.9134

     occupation numbers 
     1.0000   1.0000   1.0000   1.0000   1.0000   1.0000   1.0000   1.0458
     0.3327   0.0000   0.0000   0.0000   0.0000

          k =-0.2692-0.8077 0.1154 (   313 PWs)   bands (ev):

   -85.5754 -45.5013 -45.4741 -45.3955  13.8174  14.3130  15.8863  16.9330
    17.5275  20.4825  27.7092  30.3889  32.8015

     occupation numbers 
     1.0000   1.0000   1.0000   1.0000   1.0000   1.0000   1.0000   1.0243
     0.4244   0.0000   0.0000   0.0000   0.0000

          k =-0.1923-0.7308 0.1923 (   319 PWs)   bands (ev):

   -85.5810 -45.6054 -45.5004 -45.4856  13.6098  14.3563  15.7955  16.6857
    17.5158  19.1557  28.1199  32.2084  34.9387

     occupation numbers 
     1.0000   1.0000   1.0000   1.0000   1.0000   1.0000   1.0000   1.0008
     0.4548   0.0000   0.0000   0.0000   0.0000

          k =-0.2692 0.2692 0.2692 (   311 PWs)   bands (ev):

   -85.5986 -45.4453 -45.3988 -45.3988  11.2326  15.2719  15.8636  15.8636
    16.9954  16.9954  31.1012  41.0696  42.5973

     occupation numbers 
     1.0000   1.0000   1.0000   1.0000   1.0000   1.0000   1.0000   1.0000
     1.0421   1.0421   0.0000   0.0000   0.0000

          k =-0.3462 0.3462 0.1923 (   310 PWs)   bands (ev):

   -85.5941 -45.4489 -45.4113 -45.3513  11.8046  15.2168  15.7657  15.9347
    16.9767  17.3715  30.0548  38.0634  42.4148

     occupation numbers 
     1.0000   1.0000   1.0000   1.0000   1.0000   1.0000   1.0000   1.0000
     1.0362   0.8391   0.0000   0.0000   0.0000

          k =-0.4231 0.4231 0.1154 (   315 PWs)   bands (ev):

   -85.5903 -45.5448 -45.4584 -45.4044  12.6410  15.0857  15.5621  16.0986
    16.8098  17.9262  29.3094  34.3008  42.1294

     occupation numbers 
     1.0000   1.0000   1.0000   1.0000   1.0000   1.0000   1.0000   1.0000
     1.0057   0.0054   0.0000   0.0000   0.0000

          k = 0.5000-0.5000 1.0385 (   313 PWs)   bands (ev):

   -85.5835 -45.5472 -45.4431 -45.3546  13.5595  15.0065  15.2524  16.3670
    16.8430  18.8730  28.7342  30.9964  40.3200

     occupation numbers 
     1.0000   1.0000   1.0000   1.0000   1.0000   1.0000   1.0000   1.0000
     1.0088   0.0000   0.0000   0.0000   0.0000

          k = 0.4231-0.4231 0.9615 (   313 PWs)   bands (ev):

   -85.5780 -45.4773 -45.4253 -45.4199  14.1892  14.8624  15.1397  16.4534
    17.0535  20.3373  26.9018  29.6690  38.2995

     occupation numbers 
     1.0000   1.0000   1.0000   1.0000   1.0000   1.0000   1.0000   1.0000
     1.0619   0.0000   0.0000   0.0000   0.0000

          k = 0.3462-0.3462 0.8846 (   313 PWs)   bands (ev):

   -85.5755 -45.4613 -45.4459 -45.4332  14.2494  14.6040  15.4432  16.5108
    17.3766  21.9451  24.4670  30.0131  36.6696

     occupation numbers 
     1.0000   1.0000   1.0000   1.0000   1.0000   1.0000   1.0000   1.0000
     0.8270   0.0000   0.0000   0.0000   0.0000

          k = 0.2692-0.2692 0.8077 (   312 PWs)   bands (ev):

   -85.5756 -45.4589 -45.4472 -45.4229  14.0129  14.5078  15.6412  16.6385
    17.5468  21.1614  25.2730  30.9215  35.5230

     occupation numbers 
     1.0000   1.0000   1.0000   1.0000   1.0000   1.0000   1.0000   1.0004
     0.3758   0.0000   0.0000   0.0000   0.0000

          k =-0.2692 0.4231 0.2692 (   312 PWs)   bands (ev):

   -85.5917 -45.4443 -45.4249 -45.3984  12.1691  15.2481  15.7370  15.8647
    17.2311  17.3708  28.9031  39.6169  39.9052

     occupation numbers 
     1.0000   1.0000   1.0000   1.0000   1.0000   1.0000   1.0000   1.0000
     1.0575   0.8406   0.0000   0.0000   0.0000

          k =-0.3462 0.5000 0.1923 (   314 PWs)   bands (ev):

   -85.5883 -45.5550 -45.4533 -45.3585  12.8127  15.1442  15.5871  16.0489
    17.1571  17.8583  28.0561  36.1299  39.5988

     occupation numbers 
     1.0000   1.0000   1.0000   1.0000   1.0000   1.0000   1.0000   1.0000
     1.0832   0.0151   0.0000   0.0000   0.0000

          k = 0.5769-0.4231 1.1154 (   315 PWs)   bands (ev):

   -85.5836 -45.5514 -45.4646 -45.4036  13.5720  14.9954  15.2699  16.2849
    17.0700  18.9161  27.5227  32.6303  37.7874

     occupation numbers 
     1.0000   1.0000   1.0000   1.0000   1.0000   1.0000   1.0000   1.0000
     1.0674   0.0000   0.0000   0.0000   0.0000

          k = 0.5000-0.3462 1.0385 (   315 PWs)   bands (ev):

   -85.5784 -45.5084 -45.4851 -45.4131  14.2248  14.8099  15.0480  16.5131
    17.1171  20.4095  27.0174  29.7132  36.0512

     occupation numbers 
     1.0000   1.0000   1.0000   1.0000   1.0000   1.0000   1.0000   1.0000
     1.0798   0.0000   0.0000   0.0000   0.0000

          k = 0.4231-0.2692 0.9615 (   314 PWs)   bands (ev):

   -85.5748 -45.5129 -45.4681 -45.3914  14.4611  14.4864  15.2582  16.6594
    17.3418  22.2645  25.3480  28.7372  34.5740

     occupation numbers 
     1.0000   1.0000   1.0000   1.0000   1.0000   1.0000   1.0000   1.0005
     0.9043   0.0000   0.0000   0.0000   0.0000

          k = 0.3462-0.1923 0.8846 (   313 PWs)   bands (ev):

   -85.5735 -45.5034 -45.4569 -45.3874  14.1473  14.4180  15.6216  16.7966
    17.5022  22.5813  24.9842  29.2966  33.4470

     occupation numbers 
     1.0000   1.0000   1.0000   1.0000   1.0000   1.0000   1.0000   1.0047
     0.4912   0.0000   0.0000   0.0000   0.0000

          k =-0.2692 0.5769 0.2692 (   320 PWs)   bands (ev):

   -85.5873 -45.6143 -45.5160 -45.4617  13.1539  15.0059  15.5308  16.0534
    17.4479  18.0769  27.1142  36.8098  37.6817

     occupation numbers 
     1.0000   1.0000   1.0000   1.0000   1.0000   1.0000   1.0000   1.0000
     0.6407   0.0004   0.0000   0.0000   0.0000

          k = 0.6538-0.3462 1.1923 (   316 PWs)   bands (ev):

   -85.5820 -45.5652 -45.4684 -45.4286  13.6671  14.8196  15.4073  16.3325
    17.4298  19.1330  26.4980  34.3404  35.5190

     occupation numbers 
     1.0000   1.0000   1.0000   1.0000   1.0000   1.0000   1.0000   1.0000
     0.6901   0.0000   0.0000   0.0000   0.0000

          k = 0.5769-0.2692 1.1154 (   316 PWs)   bands (ev):

   -85.5777 -45.5412 -45.4721 -45.4386  14.1858  14.6714  15.1737  16.5397
    17.3577  20.7102  26.1472  31.3605  33.4763

     occupation numbers 
     1.0000   1.0000   1.0000   1.0000   1.0000   1.0000   1.0000   1.0000
     0.8705   0.0000   0.0000   0.0000   0.0000

          k = 0.5000-0.1923 1.0385 (   315 PWs)   bands (ev):

   -85.5744 -45.5197 -45.4634 -45.4393  14.3580  14.7349  15.0095  16.6851
    17.4781  22.6227  25.7545  28.8666  31.9317

     occupation numbers 
     1.0000   1.0000   1.0000   1.0000   1.0000   1.0000   1.0000   1.0008
     0.5570   0.0000   0.0000   0.0000   0.0000

          k = 0.4231-0.1154 0.9615 (   315 PWs)   bands (ev):

   -85.5729 -45.5229 -45.4844 -45.4160  14.1724  14.6047  15.3502  16.7589
    17.6123  24.2120  24.9679  28.1890  30.7797

     occupation numbers 
     1.0000   1.0000   1.0000   1.0000   1.0000   1.0000   1.0000   1.0027
     0.2333   0.0000   0.0000   0.0000   0.0000

          k =-0.2692-1.2692 0.2692 (   314 PWs)   bands (ev):

   -85.5788 -45.5140 -45.4610 -45.4275  13.8467  14.6590  15.5569  16.4453
    17.5421  19.9773  25.7731  32.8217  36.0761

     occupation numbers 
     1.0000   1.0000   1.0000   1.0000   1.0000   1.0000   1.0000   1.0000
     0.3876   0.0000   0.0000   0.0000   0.0000

          k =-0.3462-1.1923 0.1923 (   314 PWs)   bands (ev):

   -85.5758 -45.5163 -45.4725 -45.4017  14.0971  14.4995  15.5061  16.6662
    17.5057  21.3433  25.3700  30.9725  33.7959

     occupation numbers 
     1.0000   1.0000   1.0000   1.0000   1.0000   1.0000   1.0000   1.0006
     0.4817   0.0000   0.0000   0.0000   0.0000

          k =-0.4231-1.1154 0.1154 (   315 PWs)   bands (ev):

   -85.5737 -45.5362 -45.4642 -45.4210  14.2250  14.5763  15.2936  16.7557
    17.5622  23.1012  25.2557  29.3868  31.0007

     occupation numbers 
     1.0000   1.0000   1.0000   1.0000   1.0000   1.0000   1.0000   1.0026
     0.3390   0.0000   0.0000   0.0000   0.0000

          k =-0.5000-1.0385 0.0385 (   314 PWs)   bands (ev):

   -85.5722 -45.5325 -45.4519 -45.4099  14.1759  14.9688  14.9698  16.7248
    17.7235  24.9912  25.2269  27.8865  29.3070

     occupation numbers 
     1.0000   1.0000   1.0000   1.0000   1.0000   1.0000   1.0000   1.0016
     0.0817   0.0000   0.0000   0.0000   0.0000

          k =-0.2692-1.1154 0.2692 (   312 PWs)   bands (ev):

   -85.5735 -45.4718 -45.4281 -45.4172  14.0807  14.4061  15.7183  16.7918
    17.5398  22.3931  24.8685  29.2335  35.1468

     occupation numbers 
     1.0000   1.0000   1.0000   1.0000   1.0000   1.0000   1.0000   1.0044
     0.3932   0.0000   0.0000   0.0000   0.0000

          k =-0.3462-1.0385 0.1923 (   316 PWs)   bands (ev):

   -85.5735 -45.5284 -45.4877 -45.4273  14.1025  14.3946  15.6675  16.8363
    17.4868  23.6671  24.6181  28.1049  33.2756

     occupation numbers 
     1.0000   1.0000   1.0000   1.0000   1.0000   1.0000   1.0000   1.0081
     0.5332   0.0000   0.0000   0.0000   0.0000

          k =-0.2692-0.9615 0.2692 (   313 PWs)   bands (ev):

   -85.5727 -45.5233 -45.4705 -45.3492  14.0692  14.3715  15.8251  16.9014
    17.4142  23.4920  24.5045  28.0694  34.9536

     occupation numbers 
     1.0000   1.0000   1.0000   1.0000   1.0000   1.0000   1.0000   1.0175
     0.7320   0.0000   0.0000   0.0000   0.0000

          k =-0.3462 0.3462 0.3462 (   308 PWs)   bands (ev):

   -85.5892 -45.4121 -45.3601 -45.3601  12.3579  15.5653  15.7871  15.7871
    17.3382  17.3382  27.6926  40.3571  42.2731

     occupation numbers 
     1.0000   1.0000   1.0000   1.0000   1.0000   1.0000   1.0000   1.0000
     0.9117   0.9117   0.0000   0.0000   0.0000

          k =-0.4231 0.4231 0.2692 (   314 PWs)   bands (ev):

   -85.5879 -45.5553 -45.4119 -45.3870  12.7815  15.6073  15.6491  15.8075
    17.2416  17.7172  26.7773  37.8934  41.4440

     occupation numbers 
     1.0000   1.0000   1.0000   1.0000   1.0000   1.0000   1.0000   1.0000
     1.0493   0.0874   0.0000   0.0000   0.0000

          k = 0.5000-0.5000 1.1923 (   314 PWs)   bands (ev):

   -85.5836 -45.5329 -45.4464 -45.3882  13.4048  15.3050  15.4790  16.0066
    17.2012  18.7527  26.1785  34.3612  40.6814

     occupation numbers 
     1.0000   1.0000   1.0000   1.0000   1.0000   1.0000   1.0000   1.0000
     1.0741   0.0000   0.0000   0.0000   0.0000

          k = 0.4231-0.4231 1.1154 (   315 PWs)   bands (ev):

   -85.5791 -45.5571 -45.4380 -45.3989  14.0334  14.9266  15.2960  16.3549
    17.1203  20.2555  25.7574  31.1204  38.4473

     occupation numbers 
     1.0000   1.0000   1.0000   1.0000   1.0000   1.0000   1.0000   1.0000
     1.0804   0.0000   0.0000   0.0000   0.0000

          k = 0.3462-0.3462 1.0385 (   317 PWs)   bands (ev):

   -85.5760 -45.5339 -45.4723 -45.4711  14.3428  14.5149  15.3702  16.6099
    17.2259  22.1328  25.2022  28.6813  36.4985

     occupation numbers 
     1.0000   1.0000   1.0000   1.0000   1.0000   1.0000   1.0000   1.0002
     1.0611   0.0000   0.0000   0.0000   0.0000

          k =-0.3462 0.5000 0.3462 (   315 PWs)   bands (ev):

   -85.5861 -45.5795 -45.4335 -45.3669  12.9921  15.5807  15.8248  15.8351
    17.4485  17.7377  25.8180  38.9987  39.9295

     occupation numbers 
     1.0000   1.0000   1.0000   1.0000   1.0000   1.0000   1.0000   1.0000
     0.6388   0.0699   0.0000   0.0000   0.0000

          k = 0.5769-0.4231 1.2692 (   314 PWs)   bands (ev):

   -85.5828 -45.5374 -45.4542 -45.3743  13.4112  15.3327  15.7167  15.9592
    17.3819  18.7471  25.1959  36.2322  38.3748

     occupation numbers 
     1.0000   1.0000   1.0000   1.0000   1.0000   1.0000   1.0000   1.0000
     0.8142   0.0000   0.0000   0.0000   0.0000

          k = 0.5000-0.3462 1.1923 (   313 PWs)   bands (ev):

   -85.5787 -45.4936 -45.4340 -45.4133  13.9158  14.9713  15.4880  16.2133
    17.3547  20.2685  24.8007  32.9897  36.4379

     occupation numbers 
     1.0000   1.0000   1.0000   1.0000   1.0000   1.0000   1.0000   1.0000
     0.8772   0.0000   0.0000   0.0000   0.0000

          k = 0.4231-0.2692 1.1154 (   313 PWs)   bands (ev):

   -85.5752 -45.4875 -45.4473 -45.4077  14.3462  14.5742  15.3467  16.5491
    17.3830  22.1216  24.5608  30.0761  34.7196

     occupation numbers 
     1.0000   1.0000   1.0000   1.0000   1.0000   1.0000   1.0000   1.0001
     0.8116   0.0000   0.0000   0.0000   0.0000

          k =-0.3462-1.3462 0.3462 (   317 PWs)   bands (ev):

   -85.5819 -45.5489 -45.5175 -45.4112  13.5612  15.1389  15.7522  15.9719
    17.4944  19.3631  24.5220  35.6764  38.1509

     occupation numbers 
     1.0000   1.0000   1.0000   1.0000   1.0000   1.0000   1.0000   1.0000
     0.5124   0.0000   0.0000   0.0000   0.0000

          k =-0.4231-1.2692 0.2692 (   311 PWs)   bands (ev):

   -85.5775 -45.4767 -45.4061 -45.3941  13.9386  14.9131  15.5755  16.2430
    17.4704  20.6496  24.2061  33.7064  35.5284

     occupation numbers 
     1.0000   1.0000   1.0000   1.0000   1.0000   1.0000   1.0000   1.0000
     0.5783   0.0000   0.0000   0.0000   0.0000

          k =-0.5000-1.1923 0.1923 (   312 PWs)   bands (ev):

   -85.5751 -45.4943 -45.4569 -45.3711  14.3942  14.5903  15.3151  16.4911
    17.4472  22.1298  24.2644  31.7047  32.7178

     occupation numbers 
     1.0000   1.0000   1.0000   1.0000   1.0000   1.0000   1.0000   1.0000
     0.6426   0.0000   0.0000   0.0000   0.0000

          k =-0.3462-1.1923 0.3462 (   315 PWs)   bands (ev):

   -85.5775 -45.5066 -45.4703 -45.4402  14.0699  14.7616  15.5223  16.3389
    17.3966  21.3428  24.0198  31.7729  36.9977

     occupation numbers 
     1.0000   1.0000   1.0000   1.0000   1.0000   1.0000   1.0000   1.0000
     0.7778   0.0000   0.0000   0.0000   0.0000

          k =-0.4231 0.4231 0.4231 (   317 PWs)   bands (ev):

   -85.5860 -45.5353 -45.4547 -45.4547  13.0078  15.6689  15.6689  16.5218
    17.3966  17.3966  24.9138  39.8379  42.1359

     occupation numbers 
     1.0000   1.0000   1.0000   1.0000   1.0000   1.0000   1.0000   1.0000
     0.7778   0.7778   0.0000   0.0000   0.0000

          k = 0.5000-0.5000 1.3462 (   320 PWs)   bands (ev):

   -85.5849 -45.5515 -45.5016 -45.5011  13.2330  15.4989  15.7170  16.2699
    17.3474  18.2538  24.3273  38.0346  40.9005

     occupation numbers 
     1.0000   1.0000   1.0000   1.0000   1.0000   1.0000   1.0000   1.0000
     0.8929   0.0000   0.0000   0.0000   0.0000

          k = 0.4231-0.4231 1.2692 (   316 PWs)   bands (ev):

   -85.5810 -45.5170 -45.4601 -45.4589  13.6482  15.2228  15.7967  15.9733
    17.3667  19.7215  24.0118  34.8343  39.1638

     occupation numbers 
     1.0000   1.0000   1.0000   1.0000   1.0000   1.0000   1.0000   1.0000
     0.8503   0.0000   0.0000   0.0000   0.0000

          k =-0.4231-1.4231 0.4231 (   319 PWs)   bands (ev):

   -85.5840 -45.5961 -45.4627 -45.4626  13.2719  15.5204  15.7339  16.3568
    17.4741  18.3779  23.8352  38.4446  40.4357

     occupation numbers 
     1.0000   1.0000   1.0000   1.0000   1.0000   1.0000   1.0000   1.0000
     0.5682   0.0000   0.0000   0.0000   0.0000

          k =-0.5000-1.3462 0.3462 (   318 PWs)   bands (ev):

   -85.5820 -45.5505 -45.4845 -45.4679  13.5425  15.2800  15.8823  15.9405
    17.4287  19.4409  23.7682  36.4146  37.7967

     occupation numbers 
     1.0000   1.0000   1.0000   1.0000   1.0000   1.0000   1.0000   1.0000
     0.6933   0.0000   0.0000   0.0000   0.0000

          k = 0.5000-0.5000-0.5000 (   332 PWs)   bands (ev):

   -85.5884 -45.7462 -45.5947 -45.5947  13.0905  15.5440  15.5440  17.1918
    17.3813  17.3813  23.5591  39.6501  42.1106

     occupation numbers 
     1.0000   1.0000   1.0000   1.0000   1.0000   1.0000   1.0000   1.0774
     0.8158   0.8158   0.0000   0.0000   0.0000

     the Fermi energy is    17.5368 ev

!    total energy              =    -338.87953883 Ry
     Harris-Foulkes estimate   =    -338.87953883 Ry
     estimated scf accuracy    <          2.0E-09 Ry

     The total energy is the sum of the following terms:

     one-electron contribution =    -186.22023035 Ry
     hartree contribution      =     104.32548458 Ry
     xc contribution           =     -33.90377301 Ry
     ewald contribution        =    -223.08083981 Ry
     smearing contrib. (-TS)   =      -0.00018024 Ry

     convergence has been achieved in   6 iterations

     Writing output data file Ni_exc2.save

     init_run     :      4.54s CPU      4.62s WALL (       1 calls)
     electrons    :     36.89s CPU     37.90s WALL (       1 calls)

     Called by init_run:
     wfcinit      :      2.17s CPU      2.24s WALL (       1 calls)
     potinit      :      0.02s CPU      0.03s WALL (       1 calls)

     Called by electrons:
     c_bands      :     32.43s CPU     33.29s WALL (       7 calls)
     sum_band     :      4.21s CPU      4.36s WALL (       7 calls)
     v_of_rho     :      0.10s CPU      0.10s WALL (       7 calls)
     v_h          :      0.00s CPU      0.00s WALL (       7 calls)
     v_xc         :      0.10s CPU      0.10s WALL (       7 calls)
     newd         :      0.26s CPU      0.26s WALL (       7 calls)
     mix_rho      :      0.00s CPU      0.00s WALL (       7 calls)

     Called by c_bands:
     init_us_2    :      1.56s CPU      1.49s WALL (    3465 calls)
     cegterg      :     30.46s CPU     31.30s WALL (    1617 calls)

     Called by sum_band:
     sum_band:bec :      0.04s CPU      0.05s WALL (    1617 calls)
     addusdens    :      0.14s CPU      0.14s WALL (       7 calls)

     Called by *egterg:
     h_psi        :     17.89s CPU     18.49s WALL (    5435 calls)
     s_psi        :      1.67s CPU      1.76s WALL (    5435 calls)
     g_psi        :      0.22s CPU      0.15s WALL (    3587 calls)
     cdiaghg      :      4.68s CPU      4.88s WALL (    4973 calls)
     cegterg:over :      3.05s CPU      3.11s WALL (    3587 calls)
     cegterg:upda :      1.78s CPU      1.78s WALL (    3587 calls)
     cegterg:last :      1.11s CPU      1.14s WALL (    1617 calls)

     Called by h_psi:
     h_psi:vloc   :     14.26s CPU     14.71s WALL (    5435 calls)
     h_psi:vnl    :      3.53s CPU      3.66s WALL (    5435 calls)
     add_vuspsi   :      1.65s CPU      1.75s WALL (    5435 calls)

     General routines
     calbec       :      2.46s CPU      2.54s WALL (    7052 calls)
     fft          :      0.01s CPU      0.01s WALL (      93 calls)
     fftw         :     13.25s CPU     13.61s WALL (  127401 calls)
     davcio       :      0.00s CPU      0.06s WALL (     231 calls)

     Parallel routines
     fft_scatter  :      1.82s CPU      1.87s WALL (  127494 calls)

     PWSCF        :    43.76s CPU        45.21s WALL


   This run was terminated on:  21:58:26  18Feb2020            

=------------------------------------------------------------------------------=
   JOB DONE.
=------------------------------------------------------------------------------=
