
     Program PWSCF v.5.1 starts on 18Feb2020 at 21:57: 0 

     This program is part of the open-source Quantum ESPRESSO suite
     for quantum simulation of materials; please cite
         "P. Giannozzi et al., J. Phys.:Condens. Matter 21 395502 (2009);
          URL http://www.quantum-espresso.org", 
     in publications or presentations arising from this work. More details at
     http://www.quantum-espresso.org/quote

     Parallel version (MPI), running on     1 processors
     Waiting for input...
     Reading input from standard input

     Current dimensions of program PWSCF are:
     Max number of different atomic species (ntypx) = 10
     Max number of k-points (npk) =  40000
     Max angular momentum in pseudopotentials (lmaxx) =  3

     Subspace diagonalization in iterative solution of the eigenvalue problem:
     a serial algorithm will be used


     G-vector sticks info
     --------------------
     sticks:   dense  smooth     PW     G-vecs:    dense   smooth      PW
     Sum         253     253     91                 2565     2565     561



     bravais-lattice index     =            2
     lattice parameter (alat)  =       6.6590  a.u.
     unit-cell volume          =      73.8188 (a.u.)^3
     number of atoms/cell      =            1
     number of atomic types    =            1
     number of electrons       =        18.00
     number of Kohn-Sham states=           13
     kinetic-energy cutoff     =      40.0000  Ry
     charge density cutoff     =     160.0000  Ry
     convergence threshold     =      1.0E-06
     mixing beta               =       0.7000
     number of iterations used =            8  plain     mixing
     Exchange-correlation      = PBESOL ( 1  4 10  8 0)

     celldm(1)=   6.659000  celldm(2)=   0.000000  celldm(3)=   0.000000
     celldm(4)=   0.000000  celldm(5)=   0.000000  celldm(6)=   0.000000

     crystal axes: (cart. coord. in units of alat)
               a(1) = (  -0.500000   0.000000   0.500000 )  
               a(2) = (   0.000000   0.500000   0.500000 )  
               a(3) = (  -0.500000   0.500000   0.000000 )  

     reciprocal axes: (cart. coord. in units 2 pi/alat)
               b(1) = ( -1.000000 -1.000000  1.000000 )  
               b(2) = (  1.000000  1.000000  1.000000 )  
               b(3) = ( -1.000000  1.000000 -1.000000 )  


     PseudoPot. # 1 for Ni read from file:
     ../pseudo/Ni.pbesol-spn-rrkjus_psl.1.0.0.UPF
     MD5 check sum: 6fc0a587bf949a08f2faed986b854013
     Pseudo is Ultrasoft + core correction, Zval = 18.0
     Generated using "atomic" code by A. Dal Corso  v.6.3
     Using radial grid of 1195 points,  6 beta functions with: 
                l(1) =   0
                l(2) =   0
                l(3) =   1
                l(4) =   1
                l(5) =   2
                l(6) =   2
     Q(r) pseudized with 0 coefficients 


     atomic species   valence    mass     pseudopotential
        Ni            18.00    58.69000     Ni( 1.00)

     48 Sym. Ops., with inversion, found


                                    s                        frac. trans.

      isym =  1     identity                                     

 cryst.   s( 1) = (     1          0          0      )
                  (     0          1          0      )
                  (     0          0          1      )

 cart.    s( 1) = (  1.0000000  0.0000000  0.0000000 )
                  (  0.0000000  1.0000000  0.0000000 )
                  (  0.0000000  0.0000000  1.0000000 )


      isym =  2     180 deg rotation - cart. axis [0,0,1]        

 cryst.   s( 2) = (     0          1         -1      )
                  (     1          0         -1      )
                  (     0          0         -1      )

 cart.    s( 2) = ( -1.0000000  0.0000000  0.0000000 )
                  (  0.0000000 -1.0000000  0.0000000 )
                  (  0.0000000  0.0000000  1.0000000 )


      isym =  3     180 deg rotation - cart. axis [0,1,0]        

 cryst.   s( 3) = (    -1          0          0      )
                  (    -1          0          1      )
                  (    -1          1          0      )

 cart.    s( 3) = ( -1.0000000  0.0000000  0.0000000 )
                  (  0.0000000  1.0000000  0.0000000 )
                  (  0.0000000  0.0000000 -1.0000000 )


      isym =  4     180 deg rotation - cart. axis [1,0,0]        

 cryst.   s( 4) = (     0         -1          1      )
                  (     0         -1          0      )
                  (     1         -1          0      )

 cart.    s( 4) = (  1.0000000  0.0000000  0.0000000 )
                  (  0.0000000 -1.0000000  0.0000000 )
                  (  0.0000000  0.0000000 -1.0000000 )


      isym =  5     180 deg rotation - cart. axis [1,1,0]        

 cryst.   s( 5) = (     0         -1          0      )
                  (    -1          0          0      )
                  (     0          0         -1      )

 cart.    s( 5) = (  0.0000000  1.0000000  0.0000000 )
                  (  1.0000000  0.0000000  0.0000000 )
                  (  0.0000000  0.0000000 -1.0000000 )


      isym =  6     180 deg rotation - cart. axis [1,-1,0]       

 cryst.   s( 6) = (    -1          0          1      )
                  (     0         -1          1      )
                  (     0          0          1      )

 cart.    s( 6) = (  0.0000000 -1.0000000  0.0000000 )
                  ( -1.0000000  0.0000000  0.0000000 )
                  (  0.0000000  0.0000000 -1.0000000 )


      isym =  7      90 deg rotation - cart. axis [0,0,-1]       

 cryst.   s( 7) = (     0          1          0      )
                  (     0          1         -1      )
                  (    -1          1          0      )

 cart.    s( 7) = (  0.0000000  1.0000000  0.0000000 )
                  ( -1.0000000  0.0000000  0.0000000 )
                  (  0.0000000  0.0000000  1.0000000 )


      isym =  8      90 deg rotation - cart. axis [0,0,1]        

 cryst.   s( 8) = (     1          0         -1      )
                  (     1          0          0      )
                  (     1         -1          0      )

 cart.    s( 8) = (  0.0000000 -1.0000000  0.0000000 )
                  (  1.0000000  0.0000000  0.0000000 )
                  (  0.0000000  0.0000000  1.0000000 )


      isym =  9     180 deg rotation - cart. axis [1,0,1]        

 cryst.   s( 9) = (    -1          0          0      )
                  (     0          0         -1      )
                  (     0         -1          0      )

 cart.    s( 9) = (  0.0000000  0.0000000  1.0000000 )
                  (  0.0000000 -1.0000000  0.0000000 )
                  (  1.0000000  0.0000000  0.0000000 )


      isym = 10     180 deg rotation - cart. axis [-1,0,1]       

 cryst.   s(10) = (     1          0          0      )
                  (     1         -1          0      )
                  (     1          0         -1      )

 cart.    s(10) = (  0.0000000  0.0000000 -1.0000000 )
                  (  0.0000000 -1.0000000  0.0000000 )
                  ( -1.0000000  0.0000000  0.0000000 )


      isym = 11      90 deg rotation - cart. axis [0,1,0]        

 cryst.   s(11) = (     0          1         -1      )
                  (    -1          1          0      )
                  (     0          1          0      )

 cart.    s(11) = (  0.0000000  0.0000000  1.0000000 )
                  (  0.0000000  1.0000000  0.0000000 )
                  ( -1.0000000  0.0000000  0.0000000 )


      isym = 12      90 deg rotation - cart. axis [0,-1,0]       

 cryst.   s(12) = (     0         -1          1      )
                  (     0          0          1      )
                  (    -1          0          1      )

 cart.    s(12) = (  0.0000000  0.0000000 -1.0000000 )
                  (  0.0000000  1.0000000  0.0000000 )
                  (  1.0000000  0.0000000  0.0000000 )


      isym = 13     180 deg rotation - cart. axis [0,1,1]        

 cryst.   s(13) = (    -1          1          0      )
                  (     0          1          0      )
                  (     0          1         -1      )

 cart.    s(13) = ( -1.0000000  0.0000000  0.0000000 )
                  (  0.0000000  0.0000000  1.0000000 )
                  (  0.0000000  1.0000000  0.0000000 )


      isym = 14     180 deg rotation - cart. axis [0,1,-1]       

 cryst.   s(14) = (     0          0         -1      )
                  (     0         -1          0      )
                  (    -1          0          0      )

 cart.    s(14) = ( -1.0000000  0.0000000  0.0000000 )
                  (  0.0000000  0.0000000 -1.0000000 )
                  (  0.0000000 -1.0000000  0.0000000 )


      isym = 15      90 deg rotation - cart. axis [-1,0,0]       

 cryst.   s(15) = (     0          0          1      )
                  (    -1          0          1      )
                  (     0         -1          1      )

 cart.    s(15) = (  1.0000000  0.0000000  0.0000000 )
                  (  0.0000000  0.0000000  1.0000000 )
                  (  0.0000000 -1.0000000  0.0000000 )


      isym = 16      90 deg rotation - cart. axis [1,0,0]        

 cryst.   s(16) = (     1         -1          0      )
                  (     1          0         -1      )
                  (     1          0          0      )

 cart.    s(16) = (  1.0000000  0.0000000  0.0000000 )
                  (  0.0000000  0.0000000 -1.0000000 )
                  (  0.0000000  1.0000000  0.0000000 )


      isym = 17     120 deg rotation - cart. axis [-1,-1,-1]     

 cryst.   s(17) = (    -1          0          1      )
                  (    -1          1          0      )
                  (    -1          0          0      )

 cart.    s(17) = (  0.0000000  1.0000000  0.0000000 )
                  (  0.0000000  0.0000000  1.0000000 )
                  (  1.0000000  0.0000000  0.0000000 )


      isym = 18     120 deg rotation - cart. axis [-1,1,1]       

 cryst.   s(18) = (     0          1          0      )
                  (     0          0          1      )
                  (     1          0          0      )

 cart.    s(18) = (  0.0000000 -1.0000000  0.0000000 )
                  (  0.0000000  0.0000000  1.0000000 )
                  ( -1.0000000  0.0000000  0.0000000 )


      isym = 19     120 deg rotation - cart. axis [1,1,-1]       

 cryst.   s(19) = (     1          0         -1      )
                  (     0          0         -1      )
                  (     0          1         -1      )

 cart.    s(19) = (  0.0000000  1.0000000  0.0000000 )
                  (  0.0000000  0.0000000 -1.0000000 )
                  ( -1.0000000  0.0000000  0.0000000 )


      isym = 20     120 deg rotation - cart. axis [1,-1,1]       

 cryst.   s(20) = (     0         -1          0      )
                  (     1         -1          0      )
                  (     0         -1          1      )

 cart.    s(20) = (  0.0000000 -1.0000000  0.0000000 )
                  (  0.0000000  0.0000000 -1.0000000 )
                  (  1.0000000  0.0000000  0.0000000 )


      isym = 21     120 deg rotation - cart. axis [1,1,1]        

 cryst.   s(21) = (     0          0         -1      )
                  (     0          1         -1      )
                  (     1          0         -1      )

 cart.    s(21) = (  0.0000000  0.0000000  1.0000000 )
                  (  1.0000000  0.0000000  0.0000000 )
                  (  0.0000000  1.0000000  0.0000000 )


      isym = 22     120 deg rotation - cart. axis [-1,1,-1]      

 cryst.   s(22) = (    -1          1          0      )
                  (    -1          0          0      )
                  (    -1          0          1      )

 cart.    s(22) = (  0.0000000  0.0000000  1.0000000 )
                  ( -1.0000000  0.0000000  0.0000000 )
                  (  0.0000000 -1.0000000  0.0000000 )


      isym = 23     120 deg rotation - cart. axis [1,-1,-1]      

 cryst.   s(23) = (     0          0          1      )
                  (     1          0          0      )
                  (     0          1          0      )

 cart.    s(23) = (  0.0000000  0.0000000 -1.0000000 )
                  ( -1.0000000  0.0000000  0.0000000 )
                  (  0.0000000  1.0000000  0.0000000 )


      isym = 24     120 deg rotation - cart. axis [-1,-1,1]      

 cryst.   s(24) = (     1         -1          0      )
                  (     0         -1          1      )
                  (     0         -1          0      )

 cart.    s(24) = (  0.0000000  0.0000000 -1.0000000 )
                  (  1.0000000  0.0000000  0.0000000 )
                  (  0.0000000 -1.0000000  0.0000000 )


      isym = 25     inversion                                    

 cryst.   s(25) = (    -1          0          0      )
                  (     0         -1          0      )
                  (     0          0         -1      )

 cart.    s(25) = ( -1.0000000  0.0000000  0.0000000 )
                  (  0.0000000 -1.0000000  0.0000000 )
                  (  0.0000000  0.0000000 -1.0000000 )


      isym = 26     inv. 180 deg rotation - cart. axis [0,0,1]   

 cryst.   s(26) = (     0         -1          1      )
                  (    -1          0          1      )
                  (     0          0          1      )

 cart.    s(26) = (  1.0000000  0.0000000  0.0000000 )
                  (  0.0000000  1.0000000  0.0000000 )
                  (  0.0000000  0.0000000 -1.0000000 )


      isym = 27     inv. 180 deg rotation - cart. axis [0,1,0]   

 cryst.   s(27) = (     1          0          0      )
                  (     1          0         -1      )
                  (     1         -1          0      )

 cart.    s(27) = (  1.0000000  0.0000000  0.0000000 )
                  (  0.0000000 -1.0000000  0.0000000 )
                  (  0.0000000  0.0000000  1.0000000 )


      isym = 28     inv. 180 deg rotation - cart. axis [1,0,0]   

 cryst.   s(28) = (     0          1         -1      )
                  (     0          1          0      )
                  (    -1          1          0      )

 cart.    s(28) = ( -1.0000000  0.0000000  0.0000000 )
                  (  0.0000000  1.0000000  0.0000000 )
                  (  0.0000000  0.0000000  1.0000000 )


      isym = 29     inv. 180 deg rotation - cart. axis [1,1,0]   

 cryst.   s(29) = (     0          1          0      )
                  (     1          0          0      )
                  (     0          0          1      )

 cart.    s(29) = (  0.0000000 -1.0000000  0.0000000 )
                  ( -1.0000000  0.0000000  0.0000000 )
                  (  0.0000000  0.0000000  1.0000000 )


      isym = 30     inv. 180 deg rotation - cart. axis [1,-1,0]  

 cryst.   s(30) = (     1          0         -1      )
                  (     0          1         -1      )
                  (     0          0         -1      )

 cart.    s(30) = (  0.0000000  1.0000000  0.0000000 )
                  (  1.0000000  0.0000000  0.0000000 )
                  (  0.0000000  0.0000000  1.0000000 )


      isym = 31     inv.  90 deg rotation - cart. axis [0,0,-1]  

 cryst.   s(31) = (     0         -1          0      )
                  (     0         -1          1      )
                  (     1         -1          0      )

 cart.    s(31) = (  0.0000000 -1.0000000  0.0000000 )
                  (  1.0000000  0.0000000  0.0000000 )
                  (  0.0000000  0.0000000 -1.0000000 )


      isym = 32     inv.  90 deg rotation - cart. axis [0,0,1]   

 cryst.   s(32) = (    -1          0          1      )
                  (    -1          0          0      )
                  (    -1          1          0      )

 cart.    s(32) = (  0.0000000  1.0000000  0.0000000 )
                  ( -1.0000000  0.0000000  0.0000000 )
                  (  0.0000000  0.0000000 -1.0000000 )


      isym = 33     inv. 180 deg rotation - cart. axis [1,0,1]   

 cryst.   s(33) = (     1          0          0      )
                  (     0          0          1      )
                  (     0          1          0      )

 cart.    s(33) = (  0.0000000  0.0000000 -1.0000000 )
                  (  0.0000000  1.0000000  0.0000000 )
                  ( -1.0000000  0.0000000  0.0000000 )


      isym = 34     inv. 180 deg rotation - cart. axis [-1,0,1]  

 cryst.   s(34) = (    -1          0          0      )
                  (    -1          1          0      )
                  (    -1          0          1      )

 cart.    s(34) = (  0.0000000  0.0000000  1.0000000 )
                  (  0.0000000  1.0000000  0.0000000 )
                  (  1.0000000  0.0000000  0.0000000 )


      isym = 35     inv.  90 deg rotation - cart. axis [0,1,0]   

 cryst.   s(35) = (     0         -1          1      )
                  (     1         -1          0      )
                  (     0         -1          0      )

 cart.    s(35) = (  0.0000000  0.0000000 -1.0000000 )
                  (  0.0000000 -1.0000000  0.0000000 )
                  (  1.0000000  0.0000000  0.0000000 )


      isym = 36     inv.  90 deg rotation - cart. axis [0,-1,0]  

 cryst.   s(36) = (     0          1         -1      )
                  (     0          0         -1      )
                  (     1          0         -1      )

 cart.    s(36) = (  0.0000000  0.0000000  1.0000000 )
                  (  0.0000000 -1.0000000  0.0000000 )
                  ( -1.0000000  0.0000000  0.0000000 )


      isym = 37     inv. 180 deg rotation - cart. axis [0,1,1]   

 cryst.   s(37) = (     1         -1          0      )
                  (     0         -1          0      )
                  (     0         -1          1      )

 cart.    s(37) = (  1.0000000  0.0000000  0.0000000 )
                  (  0.0000000  0.0000000 -1.0000000 )
                  (  0.0000000 -1.0000000  0.0000000 )


      isym = 38     inv. 180 deg rotation - cart. axis [0,1,-1]  

 cryst.   s(38) = (     0          0          1      )
                  (     0          1          0      )
                  (     1          0          0      )

 cart.    s(38) = (  1.0000000  0.0000000  0.0000000 )
                  (  0.0000000  0.0000000  1.0000000 )
                  (  0.0000000  1.0000000  0.0000000 )


      isym = 39     inv.  90 deg rotation - cart. axis [-1,0,0]  

 cryst.   s(39) = (     0          0         -1      )
                  (     1          0         -1      )
                  (     0          1         -1      )

 cart.    s(39) = ( -1.0000000  0.0000000  0.0000000 )
                  (  0.0000000  0.0000000 -1.0000000 )
                  (  0.0000000  1.0000000  0.0000000 )


      isym = 40     inv.  90 deg rotation - cart. axis [1,0,0]   

 cryst.   s(40) = (    -1          1          0      )
                  (    -1          0          1      )
                  (    -1          0          0      )

 cart.    s(40) = ( -1.0000000  0.0000000  0.0000000 )
                  (  0.0000000  0.0000000  1.0000000 )
                  (  0.0000000 -1.0000000  0.0000000 )


      isym = 41     inv. 120 deg rotation - cart. axis [-1,-1,-1]

 cryst.   s(41) = (     1          0         -1      )
                  (     1         -1          0      )
                  (     1          0          0      )

 cart.    s(41) = (  0.0000000 -1.0000000  0.0000000 )
                  (  0.0000000  0.0000000 -1.0000000 )
                  ( -1.0000000  0.0000000  0.0000000 )


      isym = 42     inv. 120 deg rotation - cart. axis [-1,1,1]  

 cryst.   s(42) = (     0         -1          0      )
                  (     0          0         -1      )
                  (    -1          0          0      )

 cart.    s(42) = (  0.0000000  1.0000000  0.0000000 )
                  (  0.0000000  0.0000000 -1.0000000 )
                  (  1.0000000  0.0000000  0.0000000 )


      isym = 43     inv. 120 deg rotation - cart. axis [1,1,-1]  

 cryst.   s(43) = (    -1          0          1      )
                  (     0          0          1      )
                  (     0         -1          1      )

 cart.    s(43) = (  0.0000000 -1.0000000  0.0000000 )
                  (  0.0000000  0.0000000  1.0000000 )
                  (  1.0000000  0.0000000  0.0000000 )


      isym = 44     inv. 120 deg rotation - cart. axis [1,-1,1]  

 cryst.   s(44) = (     0          1          0      )
                  (    -1          1          0      )
                  (     0          1         -1      )

 cart.    s(44) = (  0.0000000  1.0000000  0.0000000 )
                  (  0.0000000  0.0000000  1.0000000 )
                  ( -1.0000000  0.0000000  0.0000000 )


      isym = 45     inv. 120 deg rotation - cart. axis [1,1,1]   

 cryst.   s(45) = (     0          0          1      )
                  (     0         -1          1      )
                  (    -1          0          1      )

 cart.    s(45) = (  0.0000000  0.0000000 -1.0000000 )
                  ( -1.0000000  0.0000000  0.0000000 )
                  (  0.0000000 -1.0000000  0.0000000 )


      isym = 46     inv. 120 deg rotation - cart. axis [-1,1,-1] 

 cryst.   s(46) = (     1         -1          0      )
                  (     1          0          0      )
                  (     1          0         -1      )

 cart.    s(46) = (  0.0000000  0.0000000 -1.0000000 )
                  (  1.0000000  0.0000000  0.0000000 )
                  (  0.0000000  1.0000000  0.0000000 )


      isym = 47     inv. 120 deg rotation - cart. axis [1,-1,-1] 

 cryst.   s(47) = (     0          0         -1      )
                  (    -1          0          0      )
                  (     0         -1          0      )

 cart.    s(47) = (  0.0000000  0.0000000  1.0000000 )
                  (  1.0000000  0.0000000  0.0000000 )
                  (  0.0000000 -1.0000000  0.0000000 )


      isym = 48     inv. 120 deg rotation - cart. axis [-1,-1,1] 

 cryst.   s(48) = (    -1          1          0      )
                  (     0          1         -1      )
                  (     0          1          0      )

 cart.    s(48) = (  0.0000000  0.0000000  1.0000000 )
                  ( -1.0000000  0.0000000  0.0000000 )
                  (  0.0000000  1.0000000  0.0000000 )


     point group O_h (m-3m) 
     there are 10 classes
     the character table:

       E     8C3   6C2'  6C4   3C2   i     6S4   8S6   3s_h  6s_d 
A_1g   1.00  1.00  1.00  1.00  1.00  1.00  1.00  1.00  1.00  1.00
A_2g   1.00  1.00 -1.00 -1.00  1.00  1.00 -1.00  1.00  1.00 -1.00
E_g    2.00 -1.00  0.00  0.00  2.00  2.00  0.00 -1.00  2.00  0.00
T_1g   3.00  0.00 -1.00  1.00 -1.00  3.00  1.00  0.00 -1.00 -1.00
T_2g   3.00  0.00  1.00 -1.00 -1.00  3.00 -1.00  0.00 -1.00  1.00
A_1u   1.00  1.00  1.00  1.00  1.00 -1.00 -1.00 -1.00 -1.00 -1.00
A_2u   1.00  1.00 -1.00 -1.00  1.00 -1.00  1.00 -1.00 -1.00  1.00
E_u    2.00 -1.00  0.00  0.00  2.00 -2.00  0.00  1.00 -2.00  0.00
T_1u   3.00  0.00 -1.00  1.00 -1.00 -3.00 -1.00  0.00  1.00  1.00
T_2u   3.00  0.00  1.00 -1.00 -1.00 -3.00  1.00  0.00  1.00 -1.00

     the symmetry operations in each class:
     E        1
     3C2      2    4    3
     6C2'     5    6   14   13   10    9
     6C4      7    8   15   16   12   11
     8C3     17   19   20   18   24   21   22   23
     i       25
     3s_h    26   28   27
     6s_d    29   30   38   37   34   33
     6S4     31   32   39   40   36   35
     8S6     41   43   44   42   48   45   46   47

   Cartesian axes

     site n.     atom                  positions (alat units)
         1           Ni  tau(   1) = (   0.0000000   0.0000000   0.0000000  )

   Crystallographic axes

     site n.     atom                  positions (cryst. coord.)
         1           Ni  tau(   1) = (  0.0000000  0.0000000  0.0000000  )

     number of k points=   182  Marzari-Vanderbilt smearing, width (Ry)=  0.0200
                       cart. coord. in units 2pi/alat
        k(    1) = (  -0.0416667   0.0416667   0.0416667), wk =   0.0023148
        k(    2) = (  -0.1250000   0.1250000  -0.0416667), wk =   0.0069444
        k(    3) = (  -0.2083333   0.2083333  -0.1250000), wk =   0.0069444
        k(    4) = (  -0.2916667   0.2916667  -0.2083333), wk =   0.0069444
        k(    5) = (  -0.3750000   0.3750000  -0.2916667), wk =   0.0069444
        k(    6) = (  -0.4583333   0.4583333  -0.3750000), wk =   0.0069444
        k(    7) = (   0.4583333  -0.4583333   0.5416667), wk =   0.0069444
        k(    8) = (   0.3750000  -0.3750000   0.4583333), wk =   0.0069444
        k(    9) = (   0.2916667  -0.2916667   0.3750000), wk =   0.0069444
        k(   10) = (   0.2083333  -0.2083333   0.2916667), wk =   0.0069444
        k(   11) = (   0.1250000  -0.1250000   0.2083333), wk =   0.0069444
        k(   12) = (   0.0416667  -0.0416667   0.1250000), wk =   0.0069444
        k(   13) = (  -0.0416667   0.2083333   0.0416667), wk =   0.0069444
        k(   14) = (  -0.1250000   0.2916667  -0.0416667), wk =   0.0138889
        k(   15) = (  -0.2083333   0.3750000  -0.1250000), wk =   0.0138889
        k(   16) = (  -0.2916667   0.4583333  -0.2083333), wk =   0.0138889
        k(   17) = (  -0.3750000   0.5416667  -0.2916667), wk =   0.0138889
        k(   18) = (   0.5416667  -0.3750000   0.6250000), wk =   0.0138889
        k(   19) = (   0.4583333  -0.2916667   0.5416667), wk =   0.0138889
        k(   20) = (   0.3750000  -0.2083333   0.4583333), wk =   0.0138889
        k(   21) = (   0.2916667  -0.1250000   0.3750000), wk =   0.0138889
        k(   22) = (   0.2083333  -0.0416667   0.2916667), wk =   0.0138889
        k(   23) = (   0.1250000   0.0416667   0.2083333), wk =   0.0138889
        k(   24) = (  -0.0416667   0.3750000   0.0416667), wk =   0.0069444
        k(   25) = (  -0.1250000   0.4583333  -0.0416667), wk =   0.0138889
        k(   26) = (  -0.2083333   0.5416667  -0.1250000), wk =   0.0138889
        k(   27) = (  -0.2916667   0.6250000  -0.2083333), wk =   0.0138889
        k(   28) = (   0.6250000  -0.2916667   0.7083333), wk =   0.0138889
        k(   29) = (   0.5416667  -0.2083333   0.6250000), wk =   0.0138889
        k(   30) = (   0.4583333  -0.1250000   0.5416667), wk =   0.0138889
        k(   31) = (   0.3750000  -0.0416667   0.4583333), wk =   0.0138889
        k(   32) = (   0.2916667   0.0416667   0.3750000), wk =   0.0138889
        k(   33) = (   0.2083333   0.1250000   0.2916667), wk =   0.0138889
        k(   34) = (  -0.0416667   0.5416667   0.0416667), wk =   0.0069444
        k(   35) = (  -0.1250000   0.6250000  -0.0416667), wk =   0.0138889
        k(   36) = (  -0.2083333   0.7083333  -0.1250000), wk =   0.0138889
        k(   37) = (   0.7083333  -0.2083333   0.7916667), wk =   0.0138889
        k(   38) = (   0.6250000  -0.1250000   0.7083333), wk =   0.0138889
        k(   39) = (   0.5416667  -0.0416667   0.6250000), wk =   0.0138889
        k(   40) = (   0.4583333   0.0416667   0.5416667), wk =   0.0138889
        k(   41) = (   0.3750000   0.1250000   0.4583333), wk =   0.0138889
        k(   42) = (   0.2916667   0.2083333   0.3750000), wk =   0.0138889
        k(   43) = (  -0.0416667   0.7083333   0.0416667), wk =   0.0069444
        k(   44) = (  -0.1250000   0.7916667  -0.0416667), wk =   0.0138889
        k(   45) = (   0.7916667  -0.1250000   0.8750000), wk =   0.0138889
        k(   46) = (   0.7083333  -0.0416667   0.7916667), wk =   0.0138889
        k(   47) = (   0.6250000   0.0416667   0.7083333), wk =   0.0138889
        k(   48) = (   0.5416667   0.1250000   0.6250000), wk =   0.0138889
        k(   49) = (   0.4583333   0.2083333   0.5416667), wk =   0.0138889
        k(   50) = (   0.3750000   0.2916667   0.4583333), wk =   0.0138889
        k(   51) = (  -0.0416667   0.8750000   0.0416667), wk =   0.0069444
        k(   52) = (   0.8750000  -0.0416667   0.9583333), wk =   0.0138889
        k(   53) = (   0.7916667   0.0416667   0.8750000), wk =   0.0138889
        k(   54) = (   0.7083333   0.1250000   0.7916667), wk =   0.0138889
        k(   55) = (   0.6250000   0.2083333   0.7083333), wk =   0.0138889
        k(   56) = (   0.5416667   0.2916667   0.6250000), wk =   0.0138889
        k(   57) = (   0.4583333   0.3750000   0.5416667), wk =   0.0138889
        k(   58) = (  -0.0416667  -0.9583333   0.0416667), wk =   0.0069444
        k(   59) = (  -0.1250000  -0.8750000  -0.0416667), wk =   0.0138889
        k(   60) = (  -0.2083333  -0.7916667  -0.1250000), wk =   0.0138889
        k(   61) = (  -0.2916667  -0.7083333  -0.2083333), wk =   0.0138889
        k(   62) = (  -0.3750000  -0.6250000  -0.2916667), wk =   0.0138889
        k(   63) = (  -0.0416667  -0.7916667   0.0416667), wk =   0.0069444
        k(   64) = (  -0.1250000  -0.7083333  -0.0416667), wk =   0.0138889
        k(   65) = (  -0.2083333  -0.6250000  -0.1250000), wk =   0.0138889
        k(   66) = (  -0.2916667  -0.5416667  -0.2083333), wk =   0.0138889
        k(   67) = (  -0.0416667  -0.6250000   0.0416667), wk =   0.0069444
        k(   68) = (  -0.1250000  -0.5416667  -0.0416667), wk =   0.0138889
        k(   69) = (  -0.2083333  -0.4583333  -0.1250000), wk =   0.0138889
        k(   70) = (  -0.0416667  -0.4583333   0.0416667), wk =   0.0069444
        k(   71) = (  -0.1250000  -0.3750000  -0.0416667), wk =   0.0138889
        k(   72) = (  -0.0416667  -0.2916667   0.0416667), wk =   0.0069444
        k(   73) = (  -0.1250000   0.1250000   0.1250000), wk =   0.0023148
        k(   74) = (  -0.2083333   0.2083333   0.0416667), wk =   0.0069444
        k(   75) = (  -0.2916667   0.2916667  -0.0416667), wk =   0.0069444
        k(   76) = (  -0.3750000   0.3750000  -0.1250000), wk =   0.0069444
        k(   77) = (  -0.4583333   0.4583333  -0.2083333), wk =   0.0069444
        k(   78) = (   0.4583333  -0.4583333   0.7083333), wk =   0.0069444
        k(   79) = (   0.3750000  -0.3750000   0.6250000), wk =   0.0069444
        k(   80) = (   0.2916667  -0.2916667   0.5416667), wk =   0.0069444
        k(   81) = (   0.2083333  -0.2083333   0.4583333), wk =   0.0069444
        k(   82) = (   0.1250000  -0.1250000   0.3750000), wk =   0.0069444
        k(   83) = (  -0.1250000   0.2916667   0.1250000), wk =   0.0069444
        k(   84) = (  -0.2083333   0.3750000   0.0416667), wk =   0.0138889
        k(   85) = (  -0.2916667   0.4583333  -0.0416667), wk =   0.0138889
        k(   86) = (  -0.3750000   0.5416667  -0.1250000), wk =   0.0138889
        k(   87) = (   0.5416667  -0.3750000   0.7916667), wk =   0.0138889
        k(   88) = (   0.4583333  -0.2916667   0.7083333), wk =   0.0138889
        k(   89) = (   0.3750000  -0.2083333   0.6250000), wk =   0.0138889
        k(   90) = (   0.2916667  -0.1250000   0.5416667), wk =   0.0138889
        k(   91) = (   0.2083333  -0.0416667   0.4583333), wk =   0.0138889
        k(   92) = (  -0.1250000   0.4583333   0.1250000), wk =   0.0069444
        k(   93) = (  -0.2083333   0.5416667   0.0416667), wk =   0.0138889
        k(   94) = (  -0.2916667   0.6250000  -0.0416667), wk =   0.0138889
        k(   95) = (   0.6250000  -0.2916667   0.8750000), wk =   0.0138889
        k(   96) = (   0.5416667  -0.2083333   0.7916667), wk =   0.0138889
        k(   97) = (   0.4583333  -0.1250000   0.7083333), wk =   0.0138889
        k(   98) = (   0.3750000  -0.0416667   0.6250000), wk =   0.0138889
        k(   99) = (   0.2916667   0.0416667   0.5416667), wk =   0.0138889
        k(  100) = (  -0.1250000   0.6250000   0.1250000), wk =   0.0069444
        k(  101) = (  -0.2083333   0.7083333   0.0416667), wk =   0.0138889
        k(  102) = (   0.7083333  -0.2083333   0.9583333), wk =   0.0138889
        k(  103) = (   0.6250000  -0.1250000   0.8750000), wk =   0.0138889
        k(  104) = (   0.5416667  -0.0416667   0.7916667), wk =   0.0138889
        k(  105) = (   0.4583333   0.0416667   0.7083333), wk =   0.0138889
        k(  106) = (   0.3750000   0.1250000   0.6250000), wk =   0.0138889
        k(  107) = (  -0.1250000   0.7916667   0.1250000), wk =   0.0069444
        k(  108) = (   0.7916667  -0.1250000   1.0416667), wk =   0.0138889
        k(  109) = (   0.7083333  -0.0416667   0.9583333), wk =   0.0138889
        k(  110) = (   0.6250000   0.0416667   0.8750000), wk =   0.0138889
        k(  111) = (   0.5416667   0.1250000   0.7916667), wk =   0.0138889
        k(  112) = (   0.4583333   0.2083333   0.7083333), wk =   0.0138889
        k(  113) = (  -0.1250000  -1.0416667   0.1250000), wk =   0.0069444
        k(  114) = (  -0.2083333  -0.9583333   0.0416667), wk =   0.0138889
        k(  115) = (  -0.2916667  -0.8750000  -0.0416667), wk =   0.0138889
        k(  116) = (  -0.3750000  -0.7916667  -0.1250000), wk =   0.0138889
        k(  117) = (  -0.1250000  -0.8750000   0.1250000), wk =   0.0069444
        k(  118) = (  -0.2083333  -0.7916667   0.0416667), wk =   0.0138889
        k(  119) = (  -0.2916667  -0.7083333  -0.0416667), wk =   0.0138889
        k(  120) = (  -0.1250000  -0.7083333   0.1250000), wk =   0.0069444
        k(  121) = (  -0.2083333  -0.6250000   0.0416667), wk =   0.0138889
        k(  122) = (  -0.1250000  -0.5416667   0.1250000), wk =   0.0069444
        k(  123) = (  -0.2083333   0.2083333   0.2083333), wk =   0.0023148
        k(  124) = (  -0.2916667   0.2916667   0.1250000), wk =   0.0069444
        k(  125) = (  -0.3750000   0.3750000   0.0416667), wk =   0.0069444
        k(  126) = (  -0.4583333   0.4583333  -0.0416667), wk =   0.0069444
        k(  127) = (   0.4583333  -0.4583333   0.8750000), wk =   0.0069444
        k(  128) = (   0.3750000  -0.3750000   0.7916667), wk =   0.0069444
        k(  129) = (   0.2916667  -0.2916667   0.7083333), wk =   0.0069444
        k(  130) = (   0.2083333  -0.2083333   0.6250000), wk =   0.0069444
        k(  131) = (  -0.2083333   0.3750000   0.2083333), wk =   0.0069444
        k(  132) = (  -0.2916667   0.4583333   0.1250000), wk =   0.0138889
        k(  133) = (  -0.3750000   0.5416667   0.0416667), wk =   0.0138889
        k(  134) = (   0.5416667  -0.3750000   0.9583333), wk =   0.0138889
        k(  135) = (   0.4583333  -0.2916667   0.8750000), wk =   0.0138889
        k(  136) = (   0.3750000  -0.2083333   0.7916667), wk =   0.0138889
        k(  137) = (   0.2916667  -0.1250000   0.7083333), wk =   0.0138889
        k(  138) = (  -0.2083333   0.5416667   0.2083333), wk =   0.0069444
        k(  139) = (  -0.2916667   0.6250000   0.1250000), wk =   0.0138889
        k(  140) = (   0.6250000  -0.2916667   1.0416667), wk =   0.0138889
        k(  141) = (   0.5416667  -0.2083333   0.9583333), wk =   0.0138889
        k(  142) = (   0.4583333  -0.1250000   0.8750000), wk =   0.0138889
        k(  143) = (   0.3750000  -0.0416667   0.7916667), wk =   0.0138889
        k(  144) = (  -0.2083333   0.7083333   0.2083333), wk =   0.0069444
        k(  145) = (   0.7083333  -0.2083333   1.1250000), wk =   0.0138889
        k(  146) = (   0.6250000  -0.1250000   1.0416667), wk =   0.0138889
        k(  147) = (   0.5416667  -0.0416667   0.9583333), wk =   0.0138889
        k(  148) = (   0.4583333   0.0416667   0.8750000), wk =   0.0138889
        k(  149) = (  -0.2083333  -1.1250000   0.2083333), wk =   0.0069444
        k(  150) = (  -0.2916667  -1.0416667   0.1250000), wk =   0.0138889
        k(  151) = (  -0.3750000  -0.9583333   0.0416667), wk =   0.0138889
        k(  152) = (  -0.2083333  -0.9583333   0.2083333), wk =   0.0069444
        k(  153) = (  -0.2916667  -0.8750000   0.1250000), wk =   0.0138889
        k(  154) = (  -0.2083333  -0.7916667   0.2083333), wk =   0.0069444
        k(  155) = (  -0.2916667   0.2916667   0.2916667), wk =   0.0023148
        k(  156) = (  -0.3750000   0.3750000   0.2083333), wk =   0.0069444
        k(  157) = (  -0.4583333   0.4583333   0.1250000), wk =   0.0069444
        k(  158) = (   0.4583333  -0.4583333   1.0416667), wk =   0.0069444
        k(  159) = (   0.3750000  -0.3750000   0.9583333), wk =   0.0069444
        k(  160) = (   0.2916667  -0.2916667   0.8750000), wk =   0.0069444
        k(  161) = (  -0.2916667   0.4583333   0.2916667), wk =   0.0069444
        k(  162) = (  -0.3750000   0.5416667   0.2083333), wk =   0.0138889
        k(  163) = (   0.5416667  -0.3750000   1.1250000), wk =   0.0138889
        k(  164) = (   0.4583333  -0.2916667   1.0416667), wk =   0.0138889
        k(  165) = (   0.3750000  -0.2083333   0.9583333), wk =   0.0138889
        k(  166) = (  -0.2916667   0.6250000   0.2916667), wk =   0.0069444
        k(  167) = (   0.6250000  -0.2916667   1.2083333), wk =   0.0138889
        k(  168) = (   0.5416667  -0.2083333   1.1250000), wk =   0.0138889
        k(  169) = (   0.4583333  -0.1250000   1.0416667), wk =   0.0138889
        k(  170) = (  -0.2916667  -1.2083333   0.2916667), wk =   0.0069444
        k(  171) = (  -0.3750000  -1.1250000   0.2083333), wk =   0.0138889
        k(  172) = (  -0.2916667  -1.0416667   0.2916667), wk =   0.0069444
        k(  173) = (  -0.3750000   0.3750000   0.3750000), wk =   0.0023148
        k(  174) = (  -0.4583333   0.4583333   0.2916667), wk =   0.0069444
        k(  175) = (   0.4583333  -0.4583333   1.2083333), wk =   0.0069444
        k(  176) = (   0.3750000  -0.3750000   1.1250000), wk =   0.0069444
        k(  177) = (  -0.3750000   0.5416667   0.3750000), wk =   0.0069444
        k(  178) = (   0.5416667  -0.3750000   1.2916667), wk =   0.0138889
        k(  179) = (   0.4583333  -0.2916667   1.2083333), wk =   0.0138889
        k(  180) = (  -0.3750000  -1.2916667   0.3750000), wk =   0.0069444
        k(  181) = (  -0.4583333   0.4583333   0.4583333), wk =   0.0023148
        k(  182) = (   0.4583333  -0.4583333   1.3750000), wk =   0.0069444

                       cryst. coord.
        k(    1) = (   0.0416667   0.0416667   0.0416667), wk =   0.0023148
        k(    2) = (   0.0416667   0.0416667   0.1250000), wk =   0.0069444
        k(    3) = (   0.0416667   0.0416667   0.2083333), wk =   0.0069444
        k(    4) = (   0.0416667   0.0416667   0.2916667), wk =   0.0069444
        k(    5) = (   0.0416667   0.0416667   0.3750000), wk =   0.0069444
        k(    6) = (   0.0416667   0.0416667   0.4583333), wk =   0.0069444
        k(    7) = (   0.0416667   0.0416667  -0.4583333), wk =   0.0069444
        k(    8) = (   0.0416667   0.0416667  -0.3750000), wk =   0.0069444
        k(    9) = (   0.0416667   0.0416667  -0.2916667), wk =   0.0069444
        k(   10) = (   0.0416667   0.0416667  -0.2083333), wk =   0.0069444
        k(   11) = (   0.0416667   0.0416667  -0.1250000), wk =   0.0069444
        k(   12) = (   0.0416667   0.0416667  -0.0416667), wk =   0.0069444
        k(   13) = (   0.0416667   0.1250000   0.1250000), wk =   0.0069444
        k(   14) = (   0.0416667   0.1250000   0.2083333), wk =   0.0138889
        k(   15) = (   0.0416667   0.1250000   0.2916667), wk =   0.0138889
        k(   16) = (   0.0416667   0.1250000   0.3750000), wk =   0.0138889
        k(   17) = (   0.0416667   0.1250000   0.4583333), wk =   0.0138889
        k(   18) = (   0.0416667   0.1250000  -0.4583333), wk =   0.0138889
        k(   19) = (   0.0416667   0.1250000  -0.3750000), wk =   0.0138889
        k(   20) = (   0.0416667   0.1250000  -0.2916667), wk =   0.0138889
        k(   21) = (   0.0416667   0.1250000  -0.2083333), wk =   0.0138889
        k(   22) = (   0.0416667   0.1250000  -0.1250000), wk =   0.0138889
        k(   23) = (   0.0416667   0.1250000  -0.0416667), wk =   0.0138889
        k(   24) = (   0.0416667   0.2083333   0.2083333), wk =   0.0069444
        k(   25) = (   0.0416667   0.2083333   0.2916667), wk =   0.0138889
        k(   26) = (   0.0416667   0.2083333   0.3750000), wk =   0.0138889
        k(   27) = (   0.0416667   0.2083333   0.4583333), wk =   0.0138889
        k(   28) = (   0.0416667   0.2083333  -0.4583333), wk =   0.0138889
        k(   29) = (   0.0416667   0.2083333  -0.3750000), wk =   0.0138889
        k(   30) = (   0.0416667   0.2083333  -0.2916667), wk =   0.0138889
        k(   31) = (   0.0416667   0.2083333  -0.2083333), wk =   0.0138889
        k(   32) = (   0.0416667   0.2083333  -0.1250000), wk =   0.0138889
        k(   33) = (   0.0416667   0.2083333  -0.0416667), wk =   0.0138889
        k(   34) = (   0.0416667   0.2916667   0.2916667), wk =   0.0069444
        k(   35) = (   0.0416667   0.2916667   0.3750000), wk =   0.0138889
        k(   36) = (   0.0416667   0.2916667   0.4583333), wk =   0.0138889
        k(   37) = (   0.0416667   0.2916667  -0.4583333), wk =   0.0138889
        k(   38) = (   0.0416667   0.2916667  -0.3750000), wk =   0.0138889
        k(   39) = (   0.0416667   0.2916667  -0.2916667), wk =   0.0138889
        k(   40) = (   0.0416667   0.2916667  -0.2083333), wk =   0.0138889
        k(   41) = (   0.0416667   0.2916667  -0.1250000), wk =   0.0138889
        k(   42) = (   0.0416667   0.2916667  -0.0416667), wk =   0.0138889
        k(   43) = (   0.0416667   0.3750000   0.3750000), wk =   0.0069444
        k(   44) = (   0.0416667   0.3750000   0.4583333), wk =   0.0138889
        k(   45) = (   0.0416667   0.3750000  -0.4583333), wk =   0.0138889
        k(   46) = (   0.0416667   0.3750000  -0.3750000), wk =   0.0138889
        k(   47) = (   0.0416667   0.3750000  -0.2916667), wk =   0.0138889
        k(   48) = (   0.0416667   0.3750000  -0.2083333), wk =   0.0138889
        k(   49) = (   0.0416667   0.3750000  -0.1250000), wk =   0.0138889
        k(   50) = (   0.0416667   0.3750000  -0.0416667), wk =   0.0138889
        k(   51) = (   0.0416667   0.4583333   0.4583333), wk =   0.0069444
        k(   52) = (   0.0416667   0.4583333  -0.4583333), wk =   0.0138889
        k(   53) = (   0.0416667   0.4583333  -0.3750000), wk =   0.0138889
        k(   54) = (   0.0416667   0.4583333  -0.2916667), wk =   0.0138889
        k(   55) = (   0.0416667   0.4583333  -0.2083333), wk =   0.0138889
        k(   56) = (   0.0416667   0.4583333  -0.1250000), wk =   0.0138889
        k(   57) = (   0.0416667   0.4583333  -0.0416667), wk =   0.0138889
        k(   58) = (   0.0416667  -0.4583333  -0.4583333), wk =   0.0069444
        k(   59) = (   0.0416667  -0.4583333  -0.3750000), wk =   0.0138889
        k(   60) = (   0.0416667  -0.4583333  -0.2916667), wk =   0.0138889
        k(   61) = (   0.0416667  -0.4583333  -0.2083333), wk =   0.0138889
        k(   62) = (   0.0416667  -0.4583333  -0.1250000), wk =   0.0138889
        k(   63) = (   0.0416667  -0.3750000  -0.3750000), wk =   0.0069444
        k(   64) = (   0.0416667  -0.3750000  -0.2916667), wk =   0.0138889
        k(   65) = (   0.0416667  -0.3750000  -0.2083333), wk =   0.0138889
        k(   66) = (   0.0416667  -0.3750000  -0.1250000), wk =   0.0138889
        k(   67) = (   0.0416667  -0.2916667  -0.2916667), wk =   0.0069444
        k(   68) = (   0.0416667  -0.2916667  -0.2083333), wk =   0.0138889
        k(   69) = (   0.0416667  -0.2916667  -0.1250000), wk =   0.0138889
        k(   70) = (   0.0416667  -0.2083333  -0.2083333), wk =   0.0069444
        k(   71) = (   0.0416667  -0.2083333  -0.1250000), wk =   0.0138889
        k(   72) = (   0.0416667  -0.1250000  -0.1250000), wk =   0.0069444
        k(   73) = (   0.1250000   0.1250000   0.1250000), wk =   0.0023148
        k(   74) = (   0.1250000   0.1250000   0.2083333), wk =   0.0069444
        k(   75) = (   0.1250000   0.1250000   0.2916667), wk =   0.0069444
        k(   76) = (   0.1250000   0.1250000   0.3750000), wk =   0.0069444
        k(   77) = (   0.1250000   0.1250000   0.4583333), wk =   0.0069444
        k(   78) = (   0.1250000   0.1250000  -0.4583333), wk =   0.0069444
        k(   79) = (   0.1250000   0.1250000  -0.3750000), wk =   0.0069444
        k(   80) = (   0.1250000   0.1250000  -0.2916667), wk =   0.0069444
        k(   81) = (   0.1250000   0.1250000  -0.2083333), wk =   0.0069444
        k(   82) = (   0.1250000   0.1250000  -0.1250000), wk =   0.0069444
        k(   83) = (   0.1250000   0.2083333   0.2083333), wk =   0.0069444
        k(   84) = (   0.1250000   0.2083333   0.2916667), wk =   0.0138889
        k(   85) = (   0.1250000   0.2083333   0.3750000), wk =   0.0138889
        k(   86) = (   0.1250000   0.2083333   0.4583333), wk =   0.0138889
        k(   87) = (   0.1250000   0.2083333  -0.4583333), wk =   0.0138889
        k(   88) = (   0.1250000   0.2083333  -0.3750000), wk =   0.0138889
        k(   89) = (   0.1250000   0.2083333  -0.2916667), wk =   0.0138889
        k(   90) = (   0.1250000   0.2083333  -0.2083333), wk =   0.0138889
        k(   91) = (   0.1250000   0.2083333  -0.1250000), wk =   0.0138889
        k(   92) = (   0.1250000   0.2916667   0.2916667), wk =   0.0069444
        k(   93) = (   0.1250000   0.2916667   0.3750000), wk =   0.0138889
        k(   94) = (   0.1250000   0.2916667   0.4583333), wk =   0.0138889
        k(   95) = (   0.1250000   0.2916667  -0.4583333), wk =   0.0138889
        k(   96) = (   0.1250000   0.2916667  -0.3750000), wk =   0.0138889
        k(   97) = (   0.1250000   0.2916667  -0.2916667), wk =   0.0138889
        k(   98) = (   0.1250000   0.2916667  -0.2083333), wk =   0.0138889
        k(   99) = (   0.1250000   0.2916667  -0.1250000), wk =   0.0138889
        k(  100) = (   0.1250000   0.3750000   0.3750000), wk =   0.0069444
        k(  101) = (   0.1250000   0.3750000   0.4583333), wk =   0.0138889
        k(  102) = (   0.1250000   0.3750000  -0.4583333), wk =   0.0138889
        k(  103) = (   0.1250000   0.3750000  -0.3750000), wk =   0.0138889
        k(  104) = (   0.1250000   0.3750000  -0.2916667), wk =   0.0138889
        k(  105) = (   0.1250000   0.3750000  -0.2083333), wk =   0.0138889
        k(  106) = (   0.1250000   0.3750000  -0.1250000), wk =   0.0138889
        k(  107) = (   0.1250000   0.4583333   0.4583333), wk =   0.0069444
        k(  108) = (   0.1250000   0.4583333  -0.4583333), wk =   0.0138889
        k(  109) = (   0.1250000   0.4583333  -0.3750000), wk =   0.0138889
        k(  110) = (   0.1250000   0.4583333  -0.2916667), wk =   0.0138889
        k(  111) = (   0.1250000   0.4583333  -0.2083333), wk =   0.0138889
        k(  112) = (   0.1250000   0.4583333  -0.1250000), wk =   0.0138889
        k(  113) = (   0.1250000  -0.4583333  -0.4583333), wk =   0.0069444
        k(  114) = (   0.1250000  -0.4583333  -0.3750000), wk =   0.0138889
        k(  115) = (   0.1250000  -0.4583333  -0.2916667), wk =   0.0138889
        k(  116) = (   0.1250000  -0.4583333  -0.2083333), wk =   0.0138889
        k(  117) = (   0.1250000  -0.3750000  -0.3750000), wk =   0.0069444
        k(  118) = (   0.1250000  -0.3750000  -0.2916667), wk =   0.0138889
        k(  119) = (   0.1250000  -0.3750000  -0.2083333), wk =   0.0138889
        k(  120) = (   0.1250000  -0.2916667  -0.2916667), wk =   0.0069444
        k(  121) = (   0.1250000  -0.2916667  -0.2083333), wk =   0.0138889
        k(  122) = (   0.1250000  -0.2083333  -0.2083333), wk =   0.0069444
        k(  123) = (   0.2083333   0.2083333   0.2083333), wk =   0.0023148
        k(  124) = (   0.2083333   0.2083333   0.2916667), wk =   0.0069444
        k(  125) = (   0.2083333   0.2083333   0.3750000), wk =   0.0069444
        k(  126) = (   0.2083333   0.2083333   0.4583333), wk =   0.0069444
        k(  127) = (   0.2083333   0.2083333  -0.4583333), wk =   0.0069444
        k(  128) = (   0.2083333   0.2083333  -0.3750000), wk =   0.0069444
        k(  129) = (   0.2083333   0.2083333  -0.2916667), wk =   0.0069444
        k(  130) = (   0.2083333   0.2083333  -0.2083333), wk =   0.0069444
        k(  131) = (   0.2083333   0.2916667   0.2916667), wk =   0.0069444
        k(  132) = (   0.2083333   0.2916667   0.3750000), wk =   0.0138889
        k(  133) = (   0.2083333   0.2916667   0.4583333), wk =   0.0138889
        k(  134) = (   0.2083333   0.2916667  -0.4583333), wk =   0.0138889
        k(  135) = (   0.2083333   0.2916667  -0.3750000), wk =   0.0138889
        k(  136) = (   0.2083333   0.2916667  -0.2916667), wk =   0.0138889
        k(  137) = (   0.2083333   0.2916667  -0.2083333), wk =   0.0138889
        k(  138) = (   0.2083333   0.3750000   0.3750000), wk =   0.0069444
        k(  139) = (   0.2083333   0.3750000   0.4583333), wk =   0.0138889
        k(  140) = (   0.2083333   0.3750000  -0.4583333), wk =   0.0138889
        k(  141) = (   0.2083333   0.3750000  -0.3750000), wk =   0.0138889
        k(  142) = (   0.2083333   0.3750000  -0.2916667), wk =   0.0138889
        k(  143) = (   0.2083333   0.3750000  -0.2083333), wk =   0.0138889
        k(  144) = (   0.2083333   0.4583333   0.4583333), wk =   0.0069444
        k(  145) = (   0.2083333   0.4583333  -0.4583333), wk =   0.0138889
        k(  146) = (   0.2083333   0.4583333  -0.3750000), wk =   0.0138889
        k(  147) = (   0.2083333   0.4583333  -0.2916667), wk =   0.0138889
        k(  148) = (   0.2083333   0.4583333  -0.2083333), wk =   0.0138889
        k(  149) = (   0.2083333  -0.4583333  -0.4583333), wk =   0.0069444
        k(  150) = (   0.2083333  -0.4583333  -0.3750000), wk =   0.0138889
        k(  151) = (   0.2083333  -0.4583333  -0.2916667), wk =   0.0138889
        k(  152) = (   0.2083333  -0.3750000  -0.3750000), wk =   0.0069444
        k(  153) = (   0.2083333  -0.3750000  -0.2916667), wk =   0.0138889
        k(  154) = (   0.2083333  -0.2916667  -0.2916667), wk =   0.0069444
        k(  155) = (   0.2916667   0.2916667   0.2916667), wk =   0.0023148
        k(  156) = (   0.2916667   0.2916667   0.3750000), wk =   0.0069444
        k(  157) = (   0.2916667   0.2916667   0.4583333), wk =   0.0069444
        k(  158) = (   0.2916667   0.2916667  -0.4583333), wk =   0.0069444
        k(  159) = (   0.2916667   0.2916667  -0.3750000), wk =   0.0069444
        k(  160) = (   0.2916667   0.2916667  -0.2916667), wk =   0.0069444
        k(  161) = (   0.2916667   0.3750000   0.3750000), wk =   0.0069444
        k(  162) = (   0.2916667   0.3750000   0.4583333), wk =   0.0138889
        k(  163) = (   0.2916667   0.3750000  -0.4583333), wk =   0.0138889
        k(  164) = (   0.2916667   0.3750000  -0.3750000), wk =   0.0138889
        k(  165) = (   0.2916667   0.3750000  -0.2916667), wk =   0.0138889
        k(  166) = (   0.2916667   0.4583333   0.4583333), wk =   0.0069444
        k(  167) = (   0.2916667   0.4583333  -0.4583333), wk =   0.0138889
        k(  168) = (   0.2916667   0.4583333  -0.3750000), wk =   0.0138889
        k(  169) = (   0.2916667   0.4583333  -0.2916667), wk =   0.0138889
        k(  170) = (   0.2916667  -0.4583333  -0.4583333), wk =   0.0069444
        k(  171) = (   0.2916667  -0.4583333  -0.3750000), wk =   0.0138889
        k(  172) = (   0.2916667  -0.3750000  -0.3750000), wk =   0.0069444
        k(  173) = (   0.3750000   0.3750000   0.3750000), wk =   0.0023148
        k(  174) = (   0.3750000   0.3750000   0.4583333), wk =   0.0069444
        k(  175) = (   0.3750000   0.3750000  -0.4583333), wk =   0.0069444
        k(  176) = (   0.3750000   0.3750000  -0.3750000), wk =   0.0069444
        k(  177) = (   0.3750000   0.4583333   0.4583333), wk =   0.0069444
        k(  178) = (   0.3750000   0.4583333  -0.4583333), wk =   0.0138889
        k(  179) = (   0.3750000   0.4583333  -0.3750000), wk =   0.0138889
        k(  180) = (   0.3750000  -0.4583333  -0.4583333), wk =   0.0069444
        k(  181) = (   0.4583333   0.4583333   0.4583333), wk =   0.0023148
        k(  182) = (   0.4583333   0.4583333  -0.4583333), wk =   0.0069444

     Dense  grid:     2565 G-vectors     FFT dimensions: (  20,  20,  20)

     Largest allocated arrays     est. size (Mb)     dimensions
        Kohn-Sham Wavefunctions         0.07 Mb     (     331,   13)
        NL pseudopotentials             0.09 Mb     (     331,   18)
        Each V/rho on FFT grid          0.12 Mb     (    8000)
        Each G-vector array             0.02 Mb     (    2565)
        G-vector shells                 0.00 Mb     (      62)
     Largest temporary arrays     est. size (Mb)     dimensions
        Auxiliary wavefunctions         0.26 Mb     (     331,   52)
        Each subspace H/S matrix        0.04 Mb     (      52,   52)
        Each <psi_i|beta_j> matrix      0.00 Mb     (      18,   13)
        Arrays for rho mixing           0.98 Mb     (    8000,    8)

     Check: negative/imaginary core charge=   -0.000044    0.000000

     Initial potential from superposition of free atoms

     starting charge   17.99977, renormalised to   18.00000
     Starting wfc are   10 randomized atomic wfcs +    3 random wfc

     total cpu time spent up to now is        3.6 secs

     per-process dynamical memory:    20.0 Mb

     Self-consistent Calculation

     iteration #  1     ecut=    40.00 Ry     beta=0.70
     Davidson diagonalization with overlap
     ethr =  1.00E-02,  avg # of iterations =  4.2

     Threshold (ethr) on eigenvalues was too large:
     Diagonalizing with lowered threshold

     Davidson diagonalization with overlap
     ethr =  1.95E-04,  avg # of iterations =  1.2

     total cpu time spent up to now is       12.8 secs

     total energy              =    -338.86645664 Ry
     Harris-Foulkes estimate   =    -338.88802248 Ry
     estimated scf accuracy    <       0.03633926 Ry

     iteration #  2     ecut=    40.00 Ry     beta=0.70
     Davidson diagonalization with overlap
     ethr =  2.02E-04,  avg # of iterations =  2.0

     total cpu time spent up to now is       18.6 secs

     total energy              =    -338.85853791 Ry
     Harris-Foulkes estimate   =    -338.89543279 Ry
     estimated scf accuracy    <       0.09593332 Ry

     iteration #  3     ecut=    40.00 Ry     beta=0.70
     Davidson diagonalization with overlap
     ethr =  2.02E-04,  avg # of iterations =  2.0

     total cpu time spent up to now is       24.3 secs

     total energy              =    -338.87766496 Ry
     Harris-Foulkes estimate   =    -338.87890252 Ry
     estimated scf accuracy    <       0.00455527 Ry

     iteration #  4     ecut=    40.00 Ry     beta=0.70
     Davidson diagonalization with overlap
     ethr =  2.53E-05,  avg # of iterations =  2.0

     total cpu time spent up to now is       28.5 secs

     total energy              =    -338.87827231 Ry
     Harris-Foulkes estimate   =    -338.87826800 Ry
     estimated scf accuracy    <       0.00002497 Ry

     iteration #  5     ecut=    40.00 Ry     beta=0.70
     Davidson diagonalization with overlap
     ethr =  1.39E-07,  avg # of iterations =  2.7

     total cpu time spent up to now is       33.5 secs

     total energy              =    -338.87828272 Ry
     Harris-Foulkes estimate   =    -338.87828327 Ry
     estimated scf accuracy    <       0.00000167 Ry

     iteration #  6     ecut=    40.00 Ry     beta=0.70
     Davidson diagonalization with overlap
     ethr =  9.29E-09,  avg # of iterations =  1.4

     total cpu time spent up to now is       38.8 secs

     End of self-consistent calculation

          k =-0.0417 0.0417 0.0417 (   331 PWs)   bands (ev):

   -85.6261 -45.6203 -45.6189 -45.6189   8.7456  15.5336  15.5669  15.5669
    16.6152  16.6152  40.9210  43.9110  44.7879

     occupation numbers 
     1.0000   1.0000   1.0000   1.0000   1.0000   1.0000   1.0000   1.0000
     1.0002   1.0002   0.0000   0.0000   0.0000

          k =-0.1250 0.1250-0.0417 (   321 PWs)   bands (ev):

   -85.6197 -45.5738 -45.5429 -45.4155   9.1195  15.5488  15.6612  15.7224
    16.6403  16.6919  39.4198  41.6672  43.6596

     occupation numbers 
     1.0000   1.0000   1.0000   1.0000   1.0000   1.0000   1.0000   1.0000
     1.0004   1.0010   0.0000   0.0000   0.0000

          k =-0.2083 0.2083-0.1250 (   316 PWs)   bands (ev):

   -85.6119 -45.4965 -45.4794 -45.4348   9.9748  15.3535  15.8397  15.8445
    16.6378  16.8259  35.4646  40.5861  43.1880

     occupation numbers 
     1.0000   1.0000   1.0000   1.0000   1.0000   1.0000   1.0000   1.0000
     1.0004   1.0073   0.0000   0.0000   0.0000

          k =-0.2917 0.2917-0.2083 (   312 PWs)   bands (ev):

   -85.6015 -45.4495 -45.4361 -45.3987  11.1963  15.2367  15.8354  15.8933
    16.8690  17.0974  31.3919  39.9222  42.4061

     occupation numbers 
     1.0000   1.0000   1.0000   1.0000   1.0000   1.0000   1.0000   1.0000
     1.0125   1.0761   0.0000   0.0000   0.0000

          k =-0.3750 0.3750-0.2917 (   314 PWs)   bands (ev):

   -85.5931 -45.5459 -45.4112 -45.3941  12.4129  15.5203  15.7338  15.7809
    17.2109  17.3716  27.6588  39.4752  41.6160

     occupation numbers 
     1.0000   1.0000   1.0000   1.0000   1.0000   1.0000   1.0000   1.0000
     1.0683   0.8324   0.0000   0.0000   0.0000

          k =-0.4583 0.4583-0.3750 (   317 PWs)   bands (ev):

   -85.5878 -45.5365 -45.4616 -45.4537  13.0822  15.6372  15.6854  16.4221
    17.3664  17.6922  24.7281  39.2657  41.2686

     occupation numbers 
     1.0000   1.0000   1.0000   1.0000   1.0000   1.0000   1.0000   1.0000
     0.8445   0.1102   0.0000   0.0000   0.0000

          k = 0.4583-0.4583 0.5417 (   319 PWs)   bands (ev):

   -85.5866 -45.5935 -45.4620 -45.4566  13.1909  15.5999  15.6680  16.7619
    17.4723  17.9171  23.6957  39.2998  41.5439

     occupation numbers 
     1.0000   1.0000   1.0000   1.0000   1.0000   1.0000   1.0000   1.0030
     0.5655   0.0060   0.0000   0.0000   0.0000

          k = 0.3750-0.3750 0.4583 (   320 PWs)   bands (ev):

   -85.5904 -45.6091 -45.5098 -45.4346  12.9055  15.6463  15.6946  16.0663
    17.3740  17.4897  25.5452  39.6214  40.9766

     occupation numbers 
     1.0000   1.0000   1.0000   1.0000   1.0000   1.0000   1.0000   1.0000
     0.8267   0.5177   0.0000   0.0000   0.0000

          k = 0.2917-0.2917 0.3750 (   309 PWs)   bands (ev):

   -85.5943 -45.4335 -45.3735 -45.3652  12.0522  15.3555  15.7889  15.8487
    17.1732  17.3262  28.8482  40.2031  41.0134

     occupation numbers 
     1.0000   1.0000   1.0000   1.0000   1.0000   1.0000   1.0000   1.0000
     1.0813   0.9297   0.0000   0.0000   0.0000

          k = 0.2083-0.2083 0.2917 (   315 PWs)   bands (ev):

   -85.6057 -45.4981 -45.4602 -45.4330  10.7570  15.2420  15.8526  15.8716
    16.7592  16.9654  32.7172  40.8970  41.4405

     occupation numbers 
     1.0000   1.0000   1.0000   1.0000   1.0000   1.0000   1.0000   1.0000
     1.0028   1.0337   0.0000   0.0000   0.0000

          k = 0.1250-0.1250 0.2083 (   317 PWs)   bands (ev):

   -85.6147 -45.5076 -45.4886 -45.4338   9.6419  15.4008  15.8019  15.8294
    16.6316  16.7694  36.8577  41.5615  42.2580

     occupation numbers 
     1.0000   1.0000   1.0000   1.0000   1.0000   1.0000   1.0000   1.0000
     1.0003   1.0033   0.0000   0.0000   0.0000

          k = 0.0417-0.0417 0.1250 (   325 PWs)   bands (ev):

   -85.6225 -45.5947 -45.5641 -45.5011   8.9359  15.5027  15.6497  15.6502
    16.6442  16.6706  40.3557  42.7740  43.4221

     occupation numbers 
     1.0000   1.0000   1.0000   1.0000   1.0000   1.0000   1.0000   1.0000
     1.0004   1.0007   0.0000   0.0000   0.0000

          k =-0.0417 0.2083 0.0417 (   318 PWs)   bands (ev):

   -85.6173 -45.5342 -45.5179 -45.3845   9.2999  15.4335  15.8123  15.8132
    16.5610  16.7638  39.5035  41.5686  41.8586

     occupation numbers 
     1.0000   1.0000   1.0000   1.0000   1.0000   1.0000   1.0000   1.0000
     1.0001   1.0031   0.0000   0.0000   0.0000

          k =-0.1250 0.2917-0.0417 (   315 PWs)   bands (ev):

   -85.6113 -45.5148 -45.4615 -45.3945   9.9806  15.2773  15.9443  15.9786
    16.4670  16.8780  37.0653  39.0295  41.9898

     occupation numbers 
     1.0000   1.0000   1.0000   1.0000   1.0000   1.0000   1.0000   1.0000
     1.0000   1.0139   0.0000   0.0000   0.0000

          k =-0.2083 0.3750-0.1250 (   311 PWs)   bands (ev):

   -85.6018 -45.4715 -45.4327 -45.3486  11.0768  15.1001  15.8828  16.0527
    16.7324  17.1557  32.9628  38.1550  41.1393

     occupation numbers 
     1.0000   1.0000   1.0000   1.0000   1.0000   1.0000   1.0000   1.0000
     1.0019   1.0832   0.0000   0.0000   0.0000

          k =-0.2917 0.4583-0.2083 (   316 PWs)   bands (ev):

   -85.5946 -45.5253 -45.4868 -45.4148  12.3179  15.1074  15.6606  15.9763
    17.1304  17.4630  29.0763  37.6911  40.0780

     occupation numbers 
     1.0000   1.0000   1.0000   1.0000   1.0000   1.0000   1.0000   1.0000
     1.0822   0.5912   0.0000   0.0000   0.0000

          k =-0.3750 0.5417-0.2917 (   316 PWs)   bands (ev):

   -85.5877 -45.5632 -45.5046 -45.3690  13.1627  15.4503  15.7064  15.8722
    17.3852  18.1726  25.7485  37.5356  39.0949

     occupation numbers 
     1.0000   1.0000   1.0000   1.0000   1.0000   1.0000   1.0000   1.0000
     0.7996   0.0000   0.0000   0.0000   0.0000

          k = 0.5417-0.3750 0.6250 (   320 PWs)   bands (ev):

   -85.5858 -45.5815 -45.5165 -45.4716  13.4142  15.3739  15.7877  16.0943
    17.4335  19.0029  23.7679  37.2309  38.8950

     occupation numbers 
     1.0000   1.0000   1.0000   1.0000   1.0000   1.0000   1.0000   1.0000
     0.6728   0.0000   0.0000   0.0000   0.0000

          k = 0.4583-0.2917 0.5417 (   316 PWs)   bands (ev):

   -85.5861 -45.5457 -45.4762 -45.4096  13.3157  15.4634  15.8115  15.9098
    17.3362  18.5551  24.8788  36.7776  39.6733

     occupation numbers 
     1.0000   1.0000   1.0000   1.0000   1.0000   1.0000   1.0000   1.0000
     0.9103   0.0000   0.0000   0.0000   0.0000

          k = 0.3750-0.2083 0.4583 (   315 PWs)   bands (ev):

   -85.5919 -45.5662 -45.4436 -45.3921  12.6905  15.2598  15.6197  15.9370
    17.1102  17.7621  27.8800  36.6333  40.9052

     occupation numbers 
     1.0000   1.0000   1.0000   1.0000   1.0000   1.0000   1.0000   1.0000
     1.0790   0.0511   0.0000   0.0000   0.0000

          k = 0.2917-0.1250 0.3750 (   312 PWs)   bands (ev):

   -85.5994 -45.4744 -45.4397 -45.3789  11.5012  15.1124  15.7807  16.0452
    16.7423  17.3393  31.6288  36.9101  42.3682

     occupation numbers 
     1.0000   1.0000   1.0000   1.0000   1.0000   1.0000   1.0000   1.0000
     1.0022   0.9040   0.0000   0.0000   0.0000

          k = 0.2083-0.0417 0.2917 (   315 PWs)   bands (ev):

   -85.6090 -45.5043 -45.4462 -45.4357  10.3066  15.2518  15.8836  15.9740
    16.5033  16.9714  35.6678  37.6418  43.6093

     occupation numbers 
     1.0000   1.0000   1.0000   1.0000   1.0000   1.0000   1.0000   1.0000
     1.0000   1.0355   0.0000   0.0000   0.0000

          k = 0.1250 0.0417 0.2083 (   319 PWs)   bands (ev):

   -85.6164 -45.5477 -45.5376 -45.4010   9.4675  15.4444  15.7692  15.8193
    16.5630  16.7522  38.2557  40.3385  43.0396

     occupation numbers 
     1.0000   1.0000   1.0000   1.0000   1.0000   1.0000   1.0000   1.0000
     1.0001   1.0026   0.0000   0.0000   0.0000

          k =-0.0417 0.3750 0.0417 (   310 PWs)   bands (ev):

   -85.6056 -45.4459 -45.3801 -45.3715  10.4771  15.0927  16.1312  16.2553
    16.3619  16.9875  37.4176  38.8062  39.5155

     occupation numbers 
     1.0000   1.0000   1.0000   1.0000   1.0000   1.0000   1.0000   1.0000
     1.0000   1.0405   0.0000   0.0000   0.0000

          k =-0.1250 0.4583-0.0417 (   311 PWs)   bands (ev):

   -85.5993 -45.4896 -45.4292 -45.3499  11.3670  14.8439  15.9989  16.4193
    16.6083  17.1662  34.8193  36.5344  39.1558

     occupation numbers 
     1.0000   1.0000   1.0000   1.0000   1.0000   1.0000   1.0000   1.0000
     1.0002   1.0823   0.0000   0.0000   0.0000

          k =-0.2083 0.5417-0.1250 (   318 PWs)   bands (ev):

   -85.5940 -45.5741 -45.4972 -45.4678  12.4814  14.7087  15.6535  16.3400
    17.1298  17.5074  30.8439  35.8552  37.4192

     occupation numbers 
     1.0000   1.0000   1.0000   1.0000   1.0000   1.0000   1.0000   1.0000
     1.0822   0.4700   0.0000   0.0000   0.0000

          k =-0.2917 0.6250-0.2083 (   318 PWs)   bands (ev):

   -85.5872 -45.6047 -45.4900 -45.4508  13.4036  14.8041  15.4809  16.2508
    17.4535  18.5105  27.2574  35.2469  36.3052

     occupation numbers 
     1.0000   1.0000   1.0000   1.0000   1.0000   1.0000   1.0000   1.0000
     0.6175   0.0000   0.0000   0.0000   0.0000

          k = 0.6250-0.2917 0.7083 (   314 PWs)   bands (ev):

   -85.5818 -45.5191 -45.4624 -45.4107  13.8079  14.9503  15.6066  16.1869
    17.4822  20.1217  24.4539  34.1127  36.6141

     occupation numbers 
     1.0000   1.0000   1.0000   1.0000   1.0000   1.0000   1.0000   1.0000
     0.5383   0.0000   0.0000   0.0000   0.0000

          k = 0.5417-0.2083 0.6250 (   312 PWs)   bands (ev):

   -85.5810 -45.4771 -45.4399 -45.3912  13.8599  15.0473  15.5962  16.1398
    17.3523  20.2254  24.4883  33.2297  37.6397

     occupation numbers 
     1.0000   1.0000   1.0000   1.0000   1.0000   1.0000   1.0000   1.0000
     0.8764   0.0000   0.0000   0.0000   0.0000

          k = 0.4583-0.1250 0.5417 (   314 PWs)   bands (ev):

   -85.5861 -45.5367 -45.4673 -45.3828  13.5146  15.0894  15.3186  16.2044
    17.0455  18.8642  27.2849  32.7981  39.1383

     occupation numbers 
     1.0000   1.0000   1.0000   1.0000   1.0000   1.0000   1.0000   1.0000
     1.0601   0.0000   0.0000   0.0000   0.0000

          k = 0.3750-0.0417 0.4583 (   315 PWs)   bands (ev):

   -85.5935 -45.5327 -45.4926 -45.3972  12.5393  14.9601  15.5394  16.3309
    16.6086  17.9090  30.8380  32.9174  40.9494

     occupation numbers 
     1.0000   1.0000   1.0000   1.0000   1.0000   1.0000   1.0000   1.0000
     1.0002   0.0068   0.0000   0.0000   0.0000

          k = 0.2917 0.0417 0.3750 (   314 PWs)   bands (ev):

   -85.6009 -45.4988 -45.4635 -45.4055  11.3761  15.0620  15.7818  16.1889
    16.4937  17.3541  33.1610  35.1378  42.8474

     occupation numbers 
     1.0000   1.0000   1.0000   1.0000   1.0000   1.0000   1.0000   1.0000
     1.0000   0.8725   0.0000   0.0000   0.0000

          k = 0.2083 0.1250 0.2917 (   315 PWs)   bands (ev):

   -85.6079 -45.4949 -45.4517 -45.4389  10.4582  15.2429  15.8640  15.9317
    16.6190  16.9617  34.1622  39.3611  42.3967

     occupation numbers 
     1.0000   1.0000   1.0000   1.0000   1.0000   1.0000   1.0000   1.0000
     1.0003   1.0326   0.0000   0.0000   0.0000

          k =-0.0417 0.5417 0.0417 (   311 PWs)   bands (ev):

   -85.5948 -45.4509 -45.4393 -45.4310  11.9965  14.5889  16.0653  16.6929
    16.8045  17.2016  35.1627  36.1011  36.5486

     occupation numbers 
     1.0000   1.0000   1.0000   1.0000   1.0000   1.0000   1.0000   1.0010
     1.0055   1.0728   0.0000   0.0000   0.0000

          k =-0.1250 0.6250-0.0417 (   316 PWs)   bands (ev):

   -85.5900 -45.6044 -45.4760 -45.4290  12.7771  14.3965  16.0035  16.8825
    17.1377  17.4750  32.8210  34.1299  34.9169

     occupation numbers 
     1.0000   1.0000   1.0000   1.0000   1.0000   1.0000   1.0000   1.0146
     1.0829   0.5581   0.0000   0.0000   0.0000

          k =-0.2083 0.7083-0.1250 (   316 PWs)   bands (ev):

   -85.5837 -45.6080 -45.4930 -45.3976  13.4786  14.3543  15.8481  16.7953
    17.4411  18.7331  29.1994  32.6213  34.3010

     occupation numbers 
     1.0000   1.0000   1.0000   1.0000   1.0000   1.0000   1.0000   1.0048
     0.6519   0.0000   0.0000   0.0000   0.0000

          k = 0.7083-0.2083 0.7917 (   314 PWs)   bands (ev):

   -85.5789 -45.5061 -45.4831 -45.4174  13.9579  14.4778  15.6297  16.6619
    17.5258  20.7583  25.9410  31.1390  34.6668

     occupation numbers 
     1.0000   1.0000   1.0000   1.0000   1.0000   1.0000   1.0000   1.0006
     0.4218   0.0000   0.0000   0.0000   0.0000

          k = 0.6250-0.1250 0.7083 (   314 PWs)   bands (ev):

   -85.5779 -45.4952 -45.4509 -45.4379  14.2588  14.5740  15.4403  16.5449
    17.3737  22.1880  24.2870  30.0763  35.6768

     occupation numbers 
     1.0000   1.0000   1.0000   1.0000   1.0000   1.0000   1.0000   1.0001
     0.8275   0.0000   0.0000   0.0000   0.0000

          k = 0.5417-0.0417 0.6250 (   315 PWs)   bands (ev):

   -85.5806 -45.5461 -45.4688 -45.3893  14.2268  14.8084  15.1144  16.4877
    17.0533  20.5056  26.7376  29.6174  37.1867

     occupation numbers 
     1.0000   1.0000   1.0000   1.0000   1.0000   1.0000   1.0000   1.0000
     1.0628   0.0000   0.0000   0.0000   0.0000

          k = 0.4583 0.0417 0.5417 (   317 PWs)   bands (ev):

   -85.5871 -45.5719 -45.5034 -45.4187  13.5664  14.9570  15.2082  16.3632
    16.8284  18.8770  28.7040  31.0617  39.0233

     occupation numbers 
     1.0000   1.0000   1.0000   1.0000   1.0000   1.0000   1.0000   1.0000
     1.0075   0.0000   0.0000   0.0000   0.0000

          k = 0.3750 0.1250 0.4583 (   313 PWs)   bands (ev):

   -85.5923 -45.5364 -45.4537 -45.3548  12.6030  15.0597  15.5831  16.1339
    16.8862  17.8692  29.3195  34.6992  40.9494

     occupation numbers 
     1.0000   1.0000   1.0000   1.0000   1.0000   1.0000   1.0000   1.0000
     1.0152   0.0124   0.0000   0.0000   0.0000

          k = 0.2917 0.2083 0.3750 (   312 PWs)   bands (ev):

   -85.5976 -45.4833 -45.4146 -45.3858  11.7299  15.1904  15.7846  15.9093
    16.9744  17.2997  30.1710  38.7873  41.5517

     occupation numbers 
     1.0000   1.0000   1.0000   1.0000   1.0000   1.0000   1.0000   1.0000
     1.0364   0.9759   0.0000   0.0000   0.0000

          k =-0.0417 0.7083 0.0417 (   322 PWs)   bands (ev):

   -85.5875 -45.6383 -45.5537 -45.5536  13.0645  14.1534  16.6968  17.0565
    17.3253  17.4370  32.0257  33.3522  33.9594

     occupation numbers 
     1.0000   1.0000   1.0000   1.0000   1.0000   1.0000   1.0010   1.0639
     0.9314   0.6632   0.0000   0.0000   0.0000

          k =-0.1250 0.7917-0.0417 (   321 PWs)   bands (ev):

   -85.5824 -45.6345 -45.5549 -45.5191  13.3437  14.0507  16.6726  17.2069
    17.4345  18.7641  30.0727  31.4971  32.9022

     occupation numbers 
     1.0000   1.0000   1.0000   1.0000   1.0000   1.0000   1.0007   1.0703
     0.6699   0.0000   0.0000   0.0000   0.0000

          k = 0.7917-0.1250 0.8750 (   317 PWs)   bands (ev):

   -85.5775 -45.5375 -45.5251 -45.4729  13.6608  14.1175  16.3309  17.0644
    17.5823  20.8882  27.9382  28.9444  33.1082

     occupation numbers 
     1.0000   1.0000   1.0000   1.0000   1.0000   1.0000   1.0000   1.0665
     0.2881   0.0000   0.0000   0.0000   0.0000

          k = 0.7083-0.0417 0.7917 (   312 PWs)   bands (ev):

   -85.5745 -45.4809 -45.4654 -45.3680  13.9987  14.3291  15.8952  16.9566
    17.5212  23.1967  25.0932  28.0196  34.0214

     occupation numbers 
     1.0000   1.0000   1.0000   1.0000   1.0000   1.0000   1.0000   1.0311
     0.4336   0.0000   0.0000   0.0000   0.0000

          k = 0.6250 0.0417 0.7083 (   316 PWs)   bands (ev):

   -85.5776 -45.5464 -45.4675 -45.4352  14.3489  14.4762  15.3938  16.6578
    17.2866  22.5098  24.9641  28.6019  35.4937

     occupation numbers 
     1.0000   1.0000   1.0000   1.0000   1.0000   1.0000   1.0000   1.0005
     0.9957   0.0000   0.0000   0.0000   0.0000

          k = 0.5417 0.1250 0.6250 (   314 PWs)   bands (ev):

   -85.5809 -45.5166 -45.4355 -45.4217  14.0506  14.8735  15.3253  16.3282
    17.2226  20.4380  25.5261  31.2521  37.3381

     occupation numbers 
     1.0000   1.0000   1.0000   1.0000   1.0000   1.0000   1.0000   1.0000
     1.0614   0.0000   0.0000   0.0000   0.0000

          k = 0.4583 0.2083 0.5417 (   313 PWs)   bands (ev):

   -85.5855 -45.5370 -45.4310 -45.3720  13.4180  15.3199  15.5181  16.0213
    17.2456  18.7552  25.9591  34.7685  39.3444

     occupation numbers 
     1.0000   1.0000   1.0000   1.0000   1.0000   1.0000   1.0000   1.0000
     1.0434   0.0000   0.0000   0.0000   0.0000

          k = 0.3750 0.2917 0.4583 (   317 PWs)   bands (ev):

   -85.5911 -45.5984 -45.4542 -45.4082  12.7899  15.5937  15.6694  15.7921
    17.2761  17.6204  26.6235  38.5291  40.7678

     occupation numbers 
     1.0000   1.0000   1.0000   1.0000   1.0000   1.0000   1.0000   1.0000
     1.0098   0.2136   0.0000   0.0000   0.0000

          k =-0.0417 0.8750 0.0417 (   322 PWs)   bands (ev):

   -85.5797 -45.6388 -45.5531 -45.5522  13.2795  13.8860  17.3682  17.3895
    17.5532  19.1899  28.2943  32.0971  32.6560

     occupation numbers 
     1.0000   1.0000   1.0000   1.0000   1.0000   1.0000   0.8404   0.7888
     0.3539   0.0000   0.0000   0.0000   0.0000

          k = 0.8750-0.0417 0.9583 (   316 PWs)   bands (ev):

   -85.5758 -45.5380 -45.5205 -45.4588  13.4201  13.8964  17.1334  17.3548
    17.7066  20.5577  27.2914  30.7485  32.1338

     occupation numbers 
     1.0000   1.0000   1.0000   1.0000   1.0000   1.0000   1.0825   0.8710
     0.0951   0.0000   0.0000   0.0000   0.0000

          k = 0.7917 0.0417 0.8750 (   317 PWs)   bands (ev):

   -85.5761 -45.5351 -45.5226 -45.4793  13.6652  14.0662  16.4603  17.1446
    17.6106  21.7365  27.1717  28.2827  32.8657

     occupation numbers 
     1.0000   1.0000   1.0000   1.0000   1.0000   1.0000   1.0000   1.0832
     0.2314   0.0000   0.0000   0.0000   0.0000

          k = 0.7083 0.1250 0.7917 (   313 PWs)   bands (ev):

   -85.5762 -45.4974 -45.4821 -45.3855  14.0187  14.3721  15.8039  16.8218
    17.5107  22.0657  25.4769  29.2845  34.2346

     occupation numbers 
     1.0000   1.0000   1.0000   1.0000   1.0000   1.0000   1.0000   1.0069
     0.4613   0.0000   0.0000   0.0000   0.0000

          k = 0.6250 0.2083 0.7083 (   312 PWs)   bands (ev):

   -85.5790 -45.4822 -45.4335 -45.4072  14.0736  14.7475  15.5187  16.3768
    17.4640  21.2916  24.1464  32.0192  36.0490

     occupation numbers 
     1.0000   1.0000   1.0000   1.0000   1.0000   1.0000   1.0000   1.0000
     0.5885   0.0000   0.0000   0.0000   0.0000

          k = 0.5417 0.2917 0.6250 (   316 PWs)   bands (ev):

   -85.5833 -45.5362 -45.4818 -45.4238  13.6295  15.2151  15.8477  15.9497
    17.3909  19.7596  23.8587  35.2970  38.1137

     occupation numbers 
     1.0000   1.0000   1.0000   1.0000   1.0000   1.0000   1.0000   1.0000
     0.7852   0.0000   0.0000   0.0000   0.0000

          k = 0.4583 0.3750 0.5417 (   318 PWs)   bands (ev):

   -85.5865 -45.5460 -45.4829 -45.4617  13.2461  15.5464  15.7051  16.3491
    17.4295  18.2291  24.1204  38.5146  40.2970

     occupation numbers 
     1.0000   1.0000   1.0000   1.0000   1.0000   1.0000   1.0000   1.0000
     0.6836   0.0000   0.0000   0.0000   0.0000

          k =-0.0417-0.9583 0.0417 (   314 PWs)   bands (ev):

   -85.5749 -45.5178 -45.5172 -45.4082  13.3457  13.8362  17.4264  17.5921
    17.7220  20.0019  27.2864  31.8249  32.3806

     occupation numbers 
     1.0000   1.0000   1.0000   1.0000   1.0000   1.0000   0.6919   0.2677
     0.0806   0.0000   0.0000   0.0000   0.0000

          k =-0.1250-0.8750-0.0417 (   318 PWs)   bands (ev):

   -85.5781 -45.5749 -45.5428 -45.4761  13.4004  13.9503  16.9709  17.3228
    17.5756  19.8058  28.3771  31.0067  32.3938

     occupation numbers 
     1.0000   1.0000   1.0000   1.0000   1.0000   1.0000   1.0353   0.9362
     0.3027   0.0000   0.0000   0.0000   0.0000

          k =-0.2083-0.7917-0.1250 (   317 PWs)   bands (ev):

   -85.5801 -45.5529 -45.5192 -45.4599  13.6340  14.2189  16.0983  16.9386
    17.5104  19.7686  28.5540  30.5854  33.5842

     occupation numbers 
     1.0000   1.0000   1.0000   1.0000   1.0000   1.0000   1.0000   1.0264
     0.4619   0.0000   0.0000   0.0000   0.0000

          k =-0.2917-0.7083-0.2083 (   315 PWs)   bands (ev):

   -85.5823 -45.5263 -45.4928 -45.4255  13.7676  14.6423  15.5232  16.4529
    17.5092  19.5373  26.5474  33.2270  35.3124

     occupation numbers 
     1.0000   1.0000   1.0000   1.0000   1.0000   1.0000   1.0000   1.0000
     0.4651   0.0000   0.0000   0.0000   0.0000

          k =-0.3750-0.6250-0.2917 (   314 PWs)   bands (ev):

   -85.5843 -45.5464 -45.4594 -45.3763  13.5233  15.1823  15.6910  16.0267
    17.4772  19.0223  25.0334  36.1340  37.5006

     occupation numbers 
     1.0000   1.0000   1.0000   1.0000   1.0000   1.0000   1.0000   1.0000
     0.5521   0.0000   0.0000   0.0000   0.0000

          k =-0.0417-0.7917 0.0417 (   322 PWs)   bands (ev):

   -85.5832 -45.6465 -45.5576 -45.5571  13.2356  13.9950  17.1271  17.2528
    17.4305  18.1995  30.0127  32.6087  33.1910

     occupation numbers 
     1.0000   1.0000   1.0000   1.0000   1.0000   1.0000   1.0818   1.0366
     0.6809   0.0000   0.0000   0.0000   0.0000

          k =-0.1250-0.7083-0.0417 (   318 PWs)   bands (ev):

   -85.5856 -45.6150 -45.5307 -45.4512  13.1815  14.2041  16.3368  17.0571
    17.3062  17.9720  31.8199  32.4402  33.6669

     occupation numbers 
     1.0000   1.0000   1.0000   1.0000   1.0000   1.0000   1.0000   1.0640
     0.9654   0.0024   0.0000   0.0000   0.0000

          k =-0.2083-0.6250-0.1250 (   318 PWs)   bands (ev):

   -85.5891 -45.6080 -45.5058 -45.4470  13.0920  14.5241  15.6451  16.5597
    17.3340  17.9633  29.9584  34.5731  35.4265

     occupation numbers 
     1.0000   1.0000   1.0000   1.0000   1.0000   1.0000   1.0000   1.0001
     0.9146   0.0028   0.0000   0.0000   0.0000

          k =-0.2917-0.5417-0.2083 (   318 PWs)   bands (ev):

   -85.5912 -45.5964 -45.4805 -45.4474  12.9074  14.9839  15.5468  16.0889
    17.3123  17.8218  28.0997  36.6146  38.1105

     occupation numbers 
     1.0000   1.0000   1.0000   1.0000   1.0000   1.0000   1.0000   1.0000
     0.9550   0.0240   0.0000   0.0000   0.0000

          k =-0.0417-0.6250 0.0417 (   317 PWs)   bands (ev):

   -85.5910 -45.6117 -45.4969 -45.4425  12.6514  14.3565  16.2628  16.9085
    17.0330  17.2405  33.9674  34.5057  34.9442

     occupation numbers 
     1.0000   1.0000   1.0000   1.0000   1.0000   1.0000   1.0000   1.0195
     1.0558   1.0480   0.0000   0.0000   0.0000

          k =-0.1250-0.5417-0.0417 (   314 PWs)   bands (ev):

   -85.5948 -45.5602 -45.4365 -45.4126  12.1309  14.6206  15.8957  16.6394
    16.8891  17.2577  33.7825  35.3598  36.9877

     occupation numbers 
     1.0000   1.0000   1.0000   1.0000   1.0000   1.0000   1.0000   1.0004
     1.0157   1.0315   0.0000   0.0000   0.0000

          k =-0.2083-0.4583-0.1250 (   314 PWs)   bands (ev):

   -85.5977 -45.5232 -45.4679 -45.3784  11.7714  14.9077  15.8120  16.1749
    16.9020  17.2733  31.8532  36.9850  39.5193

     occupation numbers 
     1.0000   1.0000   1.0000   1.0000   1.0000   1.0000   1.0000   1.0000
     1.0182   1.0135   0.0000   0.0000   0.0000

          k =-0.0417-0.4583 0.0417 (   309 PWs)   bands (ev):

   -85.5997 -45.4294 -45.4268 -45.3485  11.2307  14.8422  16.1275  16.4456
    16.5609  17.0925  36.2874  37.3891  38.4301

     occupation numbers 
     1.0000   1.0000   1.0000   1.0000   1.0000   1.0000   1.0000   1.0000
     1.0001   1.0748   0.0000   0.0000   0.0000

          k =-0.1250-0.3750-0.0417 (   314 PWs)   bands (ev):

   -85.6059 -45.5181 -45.4563 -45.3795  10.6223  15.0573  15.9960  16.1704
    16.4645  17.0128  35.9152  37.7520  40.8200

     occupation numbers 
     1.0000   1.0000   1.0000   1.0000   1.0000   1.0000   1.0000   1.0000
     1.0000   1.0489   0.0000   0.0000   0.0000

          k =-0.0417-0.2917 0.0417 (   315 PWs)   bands (ev):

   -85.6122 -45.5092 -45.4733 -45.3722   9.8147  15.2759  15.9866  15.9933
    16.4286  16.8525  38.5096  40.3018  40.4645

     occupation numbers 
     1.0000   1.0000   1.0000   1.0000   1.0000   1.0000   1.0000   1.0000
     1.0000   1.0102   0.0000   0.0000   0.0000

          k =-0.1250 0.1250 0.1250 (   319 PWs)   bands (ev):

   -85.6179 -45.5330 -45.5330 -45.4136   9.2958  15.5287  15.7201  15.7201
    16.6840  16.6840  38.1912  42.2090  43.8385

     occupation numbers 
     1.0000   1.0000   1.0000   1.0000   1.0000   1.0000   1.0000   1.0000
     1.0008   1.0008   0.0000   0.0000   0.0000

          k =-0.2083 0.2083 0.0417 (   316 PWs)   bands (ev):

   -85.6131 -45.5096 -45.4933 -45.4024   9.8120  15.4068  15.8189  15.8671
    16.5600  16.8263  36.9280  38.9608  44.0044

     occupation numbers 
     1.0000   1.0000   1.0000   1.0000   1.0000   1.0000   1.0000   1.0000
[...]

          k =-0.3750 0.5417 0.0417 (   317 PWs)   bands (ev):

   -85.5899 -45.5662 -45.5120 -45.4241  13.1492  14.8525  15.3377  16.4549
    16.7761  18.3495  29.8318  32.0001  38.3915

     occupation numbers 
     1.0000   1.0000   1.0000   1.0000   1.0000   1.0000   1.0000   1.0000
     1.0037   0.0000   0.0000   0.0000   0.0000

          k = 0.5417-0.3750 0.9583 (   317 PWs)   bands (ev):

   -85.5836 -45.5314 -45.5192 -45.4424  13.9912  14.8960  15.0187  16.4759
    17.0099  19.6771  27.8040  30.3400  36.5446

     occupation numbers 
     1.0000   1.0000   1.0000   1.0000   1.0000   1.0000   1.0000   1.0000
     1.0479   0.0000   0.0000   0.0000   0.0000

          k = 0.4583-0.2917 0.8750 (   312 PWs)   bands (ev):

   -85.5782 -45.4739 -45.4505 -45.3904  14.2888  14.6785  15.3202  16.4707
    17.3464  21.4857  24.8939  30.6783  35.0453

     occupation numbers 
     1.0000   1.0000   1.0000   1.0000   1.0000   1.0000   1.0000   1.0000
     0.8892   0.0000   0.0000   0.0000   0.0000

          k = 0.3750-0.2083 0.7917 (   314 PWs)   bands (ev):

   -85.5788 -45.5188 -45.4562 -45.4220  14.1297  14.5805  15.4396  16.5521
    17.4796  21.3200  24.9112  31.5903  34.0166

     occupation numbers 
     1.0000   1.0000   1.0000   1.0000   1.0000   1.0000   1.0000   1.0001
     0.5453   0.0000   0.0000   0.0000   0.0000

          k = 0.2917-0.1250 0.7083 (   317 PWs)   bands (ev):

   -85.5830 -45.5470 -45.4981 -45.4699  13.7186  14.4982  15.5049  16.6593
    17.4147  19.3143  27.9277  32.7162  33.7543

     occupation numbers 
     1.0000   1.0000   1.0000   1.0000   1.0000   1.0000   1.0000   1.0005
     0.7236   0.0000   0.0000   0.0000   0.0000

          k =-0.2083 0.5417 0.2083 (   318 PWs)   bands (ev):

   -85.5929 -45.5778 -45.4941 -45.4610  12.6646  14.8168  15.6083  16.1698
    17.4029  17.5013  29.4033  37.2090  37.3272

     occupation numbers 
     1.0000   1.0000   1.0000   1.0000   1.0000   1.0000   1.0000   1.0000
     0.7545   0.4863   0.0000   0.0000   0.0000

          k =-0.2917 0.6250 0.1250 (   319 PWs)   bands (ev):

   -85.5880 -45.6222 -45.5113 -45.4527  13.3605  14.6503  15.4301  16.4765
    17.2383  18.4273  28.6616  33.8799  35.6097

     occupation numbers 
     1.0000   1.0000   1.0000   1.0000   1.0000   1.0000   1.0000   1.0000
     1.0498   0.0000   0.0000   0.0000   0.0000

          k = 0.6250-0.2917 1.0417 (   314 PWs)   bands (ev):

   -85.5808 -45.5158 -45.4851 -45.3955  14.0297  14.6509  15.1541  16.7824
    17.2060  19.9594  28.1897  30.5385  33.5988

     occupation numbers 
     1.0000   1.0000   1.0000   1.0000   1.0000   1.0000   1.0000   1.0040
     1.0708   0.0000   0.0000   0.0000   0.0000

          k = 0.5417-0.2083 0.9583 (   314 PWs)   bands (ev):

   -85.5772 -45.5013 -45.4812 -45.4122  14.3242  14.7593  14.9875  16.7131
    17.4295  21.9189  26.4043  29.2768  32.0130

     occupation numbers 
     1.0000   1.0000   1.0000   1.0000   1.0000   1.0000   1.0000   1.0014
     0.6837   0.0000   0.0000   0.0000   0.0000

          k = 0.4583-0.1250 0.8750 (   315 PWs)   bands (ev):

   -85.5764 -45.5202 -45.4928 -45.4163  14.2981  14.6483  15.1777  16.6952
    17.5256  23.2381  24.8324  29.7653  31.0057

     occupation numbers 
     1.0000   1.0000   1.0000   1.0000   1.0000   1.0000   1.0000   1.0010
     0.4223   0.0000   0.0000   0.0000   0.0000

          k = 0.3750-0.0417 0.7917 (   313 PWs)   bands (ev):

   -85.5775 -45.5018 -45.4859 -45.3761  14.1060  14.5774  15.2940  16.8774
    17.4395  21.0612  27.5772  29.9279  31.5255

     occupation numbers 
     1.0000   1.0000   1.0000   1.0000   1.0000   1.0000   1.0000   1.0138
     0.6562   0.0000   0.0000   0.0000   0.0000

          k =-0.2083 0.7083 0.2083 (   317 PWs)   bands (ev):

   -85.5837 -45.5971 -45.4879 -45.4417  13.6149  14.4700  15.6759  16.5930
    17.5137  19.0494  27.7824  32.8936  35.3583

     occupation numbers 
     1.0000   1.0000   1.0000   1.0000   1.0000   1.0000   1.0000   1.0002
     0.4534   0.0000   0.0000   0.0000   0.0000

          k = 0.7083-0.2083 1.1250 (   315 PWs)   bands (ev):

   -85.5789 -45.5138 -45.4813 -45.4452  13.8778  14.3722  15.6933  16.8294
    17.5012  20.4730  27.3180  30.8580  32.8921

     occupation numbers 
     1.0000   1.0000   1.0000   1.0000   1.0000   1.0000   1.0000   1.0076
     0.4865   0.0000   0.0000   0.0000   0.0000

          k = 0.6250-0.1250 1.0417 (   311 PWs)   bands (ev):

   -85.5746 -45.5100 -45.4356 -45.3437  14.0775  14.5207  15.5112  16.9207
    17.6069  22.3434  27.1241  28.9720  30.2213

     occupation numbers 
     1.0000   1.0000   1.0000   1.0000   1.0000   1.0000   1.0000   1.0221
     0.2385   0.0000   0.0000   0.0000   0.0000

          k = 0.5417-0.0417 0.9583 (   313 PWs)   bands (ev):

   -85.5743 -45.5164 -45.4521 -45.3968  14.1619  14.7966  15.1725  16.7435
    17.7150  24.4944  25.6868  27.9179  29.4059

     occupation numbers 
     1.0000   1.0000   1.0000   1.0000   1.0000   1.0000   1.0000   1.0022
     0.0870   0.0000   0.0000   0.0000   0.0000

          k = 0.4583 0.0417 0.8750 (   314 PWs)   bands (ev):

   -85.5755 -45.4899 -45.4742 -45.4326  14.2341  14.7842  15.0728  16.7359
    17.6142  23.2668  25.9464  28.7835  30.2109

     occupation numbers 
     1.0000   1.0000   1.0000   1.0000   1.0000   1.0000   1.0000   1.0020
     0.2248   0.0000   0.0000   0.0000   0.0000

          k =-0.2083-1.1250 0.2083 (   315 PWs)   bands (ev):

   -85.5768 -45.5060 -45.5022 -45.4424  13.8182  14.2171  16.1192  16.9338
    17.5480  21.4253  26.6743  29.0140  34.1794

     occupation numbers 
     1.0000   1.0000   1.0000   1.0000   1.0000   1.0000   1.0000   1.0252
     0.3664   0.0000   0.0000   0.0000   0.0000

          k =-0.2917-1.0417 0.1250 (   314 PWs)   bands (ev):

   -85.5749 -45.5205 -45.4879 -45.3948  13.8746  14.2526  16.0202  17.0434
    17.6051  22.6498  26.4368  27.9227  32.2301

     occupation numbers 
     1.0000   1.0000   1.0000   1.0000   1.0000   1.0000   1.0000   1.0594
     0.2419   0.0000   0.0000   0.0000   0.0000

          k =-0.3750-0.9583 0.0417 (   315 PWs)   bands (ev):

   -85.5749 -45.5326 -45.5125 -45.3870  14.0099  14.4691  15.5809  16.9127
    17.6812  23.3915  26.8055  27.8089  29.8544

     occupation numbers 
     1.0000   1.0000   1.0000   1.0000   1.0000   1.0000   1.0000   1.0203
     0.1230   0.0000   0.0000   0.0000   0.0000

          k =-0.2083-0.9583 0.2083 (   320 PWs)   bands (ev):

   -85.5771 -45.5800 -45.5215 -45.5147  13.7845  14.1534  16.1773  17.0277
    17.5003  22.3661  26.2641  27.8627  33.9354

     occupation numbers 
     1.0000   1.0000   1.0000   1.0000   1.0000   1.0000   1.0000   1.0540
     0.4889   0.0000   0.0000   0.0000   0.0000

          k =-0.2917-0.8750 0.1250 (   315 PWs)   bands (ev):

   -85.5766 -45.5254 -45.5032 -45.4175  13.8885  14.2904  15.9060  16.9650
    17.5454  21.6574  26.8298  29.0637  32.4466

     occupation numbers 
     1.0000   1.0000   1.0000   1.0000   1.0000   1.0000   1.0000   1.0336
     0.3727   0.0000   0.0000   0.0000   0.0000

          k =-0.2083-0.7917 0.2083 (   317 PWs)   bands (ev):

   -85.5800 -45.5473 -45.5058 -45.4663  13.7730  14.3066  15.8960  16.7583
    17.5363  20.2142  27.1637  30.7950  34.6588

     occupation numbers 
     1.0000   1.0000   1.0000   1.0000   1.0000   1.0000   1.0000   1.0028
     0.3951   0.0000   0.0000   0.0000   0.0000

          k =-0.2917 0.2917 0.2917 (   314 PWs)   bands (ev):

   -85.5993 -45.5267 -45.4101 -45.4101  11.5844  15.2651  15.8356  15.8356
    17.0480  17.0480  30.0352  40.8544  42.4760

     occupation numbers 
     1.0000   1.0000   1.0000   1.0000   1.0000   1.0000   1.0000   1.0000
     1.0610   1.0610   0.0000   0.0000   0.0000

          k =-0.3750 0.3750 0.2083 (   316 PWs)   bands (ev):

   -85.5957 -45.5604 -45.4729 -45.3957  12.1912  15.2363  15.7052  15.8907
    16.9881  17.4492  28.9446  37.6632  42.1054

     occupation numbers 
     1.0000   1.0000   1.0000   1.0000   1.0000   1.0000   1.0000   1.0000
     1.0407   0.6296   0.0000   0.0000   0.0000

          k =-0.4583 0.4583 0.1250 (   317 PWs)   bands (ev):

   -85.5904 -45.5790 -45.4920 -45.4195  13.0606  15.0922  15.4526  16.1016
    16.8823  18.2750  28.2297  33.6836  41.6114

     occupation numbers 
     1.0000   1.0000   1.0000   1.0000   1.0000   1.0000   1.0000   1.0000
     1.0146   0.0000   0.0000   0.0000   0.0000

          k = 0.4583-0.4583 1.0417 (   313 PWs)   bands (ev):

   -85.5827 -45.5081 -45.4639 -45.3669  13.9415  15.0194  15.1015  16.4124
    16.9504  19.5988  27.6705  30.2787  39.2148

     occupation numbers 
     1.0000   1.0000   1.0000   1.0000   1.0000   1.0000   1.0000   1.0000
     1.0294   0.0000   0.0000   0.0000   0.0000

          k = 0.3750-0.3750 0.9583 (   317 PWs)   bands (ev):

   -85.5796 -45.5304 -45.5023 -45.4457  14.3134  14.6324  15.2379  16.5344
    17.1806  21.3994  25.7824  29.0348  37.1511

     occupation numbers 
     1.0000   1.0000   1.0000   1.0000   1.0000   1.0000   1.0000   1.0000
     1.0798   0.0000   0.0000   0.0000   0.0000

          k = 0.2917-0.2917 0.8750 (   311 PWs)   bands (ev):

   -85.5762 -45.4750 -45.4262 -45.3855  14.1562  14.4878  15.6095  16.6925
    17.5067  22.4178  24.4595  29.6199  35.5960

     occupation numbers 
     1.0000   1.0000   1.0000   1.0000   1.0000   1.0000   1.0000   1.0010
     0.4718   0.0000   0.0000   0.0000   0.0000

          k =-0.2917 0.4583 0.2917 (   315 PWs)   bands (ev):

   -85.5923 -45.5376 -45.4573 -45.3844  12.5426  15.3584  15.6779  15.8575
    17.3776  17.3931  27.7677  39.2667  39.6589

     occupation numbers 
     1.0000   1.0000   1.0000   1.0000   1.0000   1.0000   1.0000   1.0000
     0.8180   0.7797   0.0000   0.0000   0.0000

          k =-0.3750 0.5417 0.2083 (   316 PWs)   bands (ev):

   -85.5886 -45.5895 -45.4592 -45.4014  13.1659  15.1901  15.5226  16.0397
    17.2349  18.2313  26.9357  35.6941  38.7067

     occupation numbers 
     1.0000   1.0000   1.0000   1.0000   1.0000   1.0000   1.0000   1.0000
     1.0526   0.0000   0.0000   0.0000   0.0000

          k = 0.5417-0.3750 1.1250 (   316 PWs)   bands (ev):

   -85.5835 -45.5574 -45.4754 -45.4257  13.8885  14.9248  15.2280  16.3271
    17.1873  19.6237  26.4500  32.0408  36.6873

     occupation numbers 
     1.0000   1.0000   1.0000   1.0000   1.0000   1.0000   1.0000   1.0000
     1.0780   0.0000   0.0000   0.0000   0.0000

          k = 0.4583-0.2917 1.0417 (   315 PWs)   bands (ev):

   -85.5785 -45.5178 -45.4691 -45.4268  14.4173  14.6020  15.1374  16.5895
    17.2679  21.5565  25.9387  29.1059  34.8791

     occupation numbers 
     1.0000   1.0000   1.0000   1.0000   1.0000   1.0000   1.0000   1.0001
     1.0200   0.0000   0.0000   0.0000   0.0000

          k = 0.3750-0.2083 0.9583 (   312 PWs)   bands (ev):

   -85.5750 -45.4983 -45.4186 -45.3927  14.2254  14.4783  15.5101  16.8174
    17.4914  23.6876  24.4077  28.2939  33.4314

     occupation numbers 
     1.0000   1.0000   1.0000   1.0000   1.0000   1.0000   1.0000   1.0065
     0.5132   0.0000   0.0000   0.0000   0.0000

          k =-0.2917 0.6250 0.2917 (   317 PWs)   bands (ev):

   -85.5861 -45.5523 -45.5037 -45.4439  13.4527  15.0200  15.5355  16.0875
    17.5196  18.7282  26.0350  35.8044  37.4736

     occupation numbers 
     1.0000   1.0000   1.0000   1.0000   1.0000   1.0000   1.0000   1.0000
     0.4378   0.0000   0.0000   0.0000   0.0000

          k = 0.6250-0.2917 1.2083 (   316 PWs)   bands (ev):

   -85.5820 -45.5311 -45.4794 -45.4570  13.9092  14.7679  15.4139  16.3676
    17.4361  20.0555  25.4513  33.5315  34.7467

     occupation numbers 
     1.0000   1.0000   1.0000   1.0000   1.0000   1.0000   1.0000   1.0000
     0.6657   0.0000   0.0000   0.0000   0.0000

          k = 0.5417-0.2083 1.1250 (   315 PWs)   bands (ev):

   -85.5780 -45.5258 -45.4773 -45.4251  14.3680  14.5846  15.1734  16.5904
    17.4394  21.9454  25.1822  30.8290  32.2511

     occupation numbers 
     1.0000   1.0000   1.0000   1.0000   1.0000   1.0000   1.0000   1.0001
     0.6564   0.0000   0.0000   0.0000   0.0000

          k = 0.4583-0.1250 1.0417 (   316 PWs)   bands (ev):

   -85.5760 -45.5353 -45.4899 -45.4428  14.2294  14.7050  15.1602  16.7147
    17.5895  24.1591  24.8875  28.3994  30.7014

     occupation numbers 
     1.0000   1.0000   1.0000   1.0000   1.0000   1.0000   1.0000   1.0014
     0.2730   0.0000   0.0000   0.0000   0.0000

          k =-0.2917-1.2083 0.2917 (   314 PWs)   bands (ev):

   -85.5794 -45.5202 -45.4574 -45.4299  14.0227  14.5979  15.5691  16.5154
    17.4971  21.0651  24.8157  31.5212  36.0219

     occupation numbers 
     1.0000   1.0000   1.0000   1.0000   1.0000   1.0000   1.0000   1.0000
     0.4977   0.0000   0.0000   0.0000   0.0000

          k =-0.3750-1.1250 0.2083 (   314 PWs)   bands (ev):

   -85.5767 -45.5143 -45.4573 -45.4200  14.2457  14.4968  15.4704  16.6711
    17.4566  22.6296  24.5618  29.6973  33.6134

     occupation numbers 
     1.0000   1.0000   1.0000   1.0000   1.0000   1.0000   1.0000   1.0007
     0.6090   0.0000   0.0000   0.0000   0.0000

          k =-0.2917-1.0417 0.2917 (   315 PWs)   bands (ev):

   -85.5763 -45.5331 -45.4811 -45.4048  14.1693  14.4056  15.6694  16.8036
    17.3463  23.4955  24.2342  28.2426  35.3776

     occupation numbers 
     1.0000   1.0000   1.0000   1.0000   1.0000   1.0000   1.0000   1.0054
     0.8893   0.0000   0.0000   0.0000   0.0000

          k =-0.3750 0.3750 0.3750 (   320 PWs)   bands (ev):

   -85.5928 -45.6311 -45.4610 -45.4610  12.6621  15.7156  15.7156  15.8298
    17.2590  17.2590  26.4821  40.1299  42.1936

     occupation numbers 
     1.0000   1.0000   1.0000   1.0000   1.0000   1.0000   1.0000   1.0000
     1.0301   1.0301   0.0000   0.0000   0.0000

          k =-0.4583 0.4583 0.2917 (   319 PWs)   bands (ev):

   -85.5894 -45.5920 -45.4714 -45.4657  13.0436  15.5783  15.7399  15.8436
    17.2344  17.9804  25.6557  37.6274  41.1501

     occupation numbers 
     1.0000   1.0000   1.0000   1.0000   1.0000   1.0000   1.0000   1.0000
     1.0530   0.0021   0.0000   0.0000   0.0000

          k = 0.4583-0.4583 1.2083 (   314 PWs)   bands (ev):

   -85.5835 -45.5333 -45.4180 -45.4147  13.6344  15.2392  15.5822  16.0395
    17.2731  19.3800  25.1270  33.9402  39.6697

     occupation numbers 
     1.0000   1.0000   1.0000   1.0000   1.0000   1.0000   1.0000   1.0000
     1.0136   0.0000   0.0000   0.0000   0.0000

          k = 0.3750-0.3750 1.1250 (   313 PWs)   bands (ev):

   -85.5790 -45.4623 -45.4493 -45.4305  14.1955  14.7243  15.3977  16.4080
    17.3182  21.2965  24.7821  30.5949  37.3357

     occupation numbers 
     1.0000   1.0000   1.0000   1.0000   1.0000   1.0000   1.0000   1.0000
     0.9446   0.0000   0.0000   0.0000   0.0000

          k =-0.3750 0.5417 0.3750 (   315 PWs)   bands (ev):

   -85.5865 -45.5370 -45.4627 -45.3924  13.1976  15.5226  15.7817  16.0801
    17.4726  18.1421  24.8048  38.5677  39.9070

     occupation numbers 
     1.0000   1.0000   1.0000   1.0000   1.0000   1.0000   1.0000   1.0000
     0.5646   0.0001   0.0000   0.0000   0.0000

          k = 0.5417-0.3750 1.2917 (   314 PWs)   bands (ev):

   -85.5833 -45.5228 -45.4557 -45.3934  13.5807  15.2522  15.8068  15.9735
    17.4241  19.3776  24.2968  35.9276  37.5512

     occupation numbers 
     1.0000   1.0000   1.0000   1.0000   1.0000   1.0000   1.0000   1.0000
     0.6982   0.0000   0.0000   0.0000   0.0000

          k = 0.4583-0.2917 1.2083 (   312 PWs)   bands (ev):

   -85.5795 -45.4818 -45.4363 -45.4025  14.0698  14.8358  15.4982  16.2994
    17.3999  21.1246  24.1058  32.6314  35.3885

     occupation numbers 
     1.0000   1.0000   1.0000   1.0000   1.0000   1.0000   1.0000   1.0000
     0.7622   0.0000   0.0000   0.0000   0.0000

          k =-0.3750-1.2917 0.3750 (   313 PWs)   bands (ev):

   -85.5818 -45.5039 -45.4639 -45.3755  13.7208  15.1160  15.7820  16.0439
    17.4507  20.0428  23.9189  34.6651  38.2671

     occupation numbers 
     1.0000   1.0000   1.0000   1.0000   1.0000   1.0000   1.0000   1.0000
     0.6253   0.0000   0.0000   0.0000   0.0000

          k =-0.4583 0.4583 0.4583 (   317 PWs)   bands (ev):

   -85.5867 -45.5399 -45.4520 -45.4520  13.1258  15.6473  15.6473  16.9575
    17.4560  17.4560  24.0752  39.7065  42.1222

     occupation numbers 
     1.0000   1.0000   1.0000   1.0000   1.0000   1.0000   1.0000   1.0314
     0.6108   0.6108   0.0000   0.0000   0.0000

          k = 0.4583-0.4583 1.3750 (   318 PWs)   bands (ev):

   -85.5857 -45.5414 -45.4934 -45.4580  13.3126  15.4771  15.7407  16.3397
    17.4434  18.5839  23.7573  37.9625  40.7343

     occupation numbers 
     1.0000   1.0000   1.0000   1.0000   1.0000   1.0000   1.0000   1.0000
     0.6457   0.0000   0.0000   0.0000   0.0000

     the Fermi energy is    17.5341 ev

!    total energy              =    -338.87828296 Ry
     Harris-Foulkes estimate   =    -338.87828296 Ry
     estimated scf accuracy    <          2.9E-09 Ry

     The total energy is the sum of the following terms:

     one-electron contribution =    -186.21699852 Ry
     hartree contribution      =     104.32334657 Ry
     xc contribution           =     -33.90359484 Ry
     ewald contribution        =    -223.08083981 Ry
     smearing contrib. (-TS)   =      -0.00019637 Ry

     convergence has been achieved in   6 iterations

     Writing output data file Ni_exc2.save

     init_run     :      2.47s CPU      2.50s WALL (       1 calls)
     electrons    :     34.47s CPU     35.26s WALL (       1 calls)

     Called by init_run:
     wfcinit      :      1.12s CPU      1.15s WALL (       1 calls)
     potinit      :      0.02s CPU      0.03s WALL (       1 calls)

     Called by electrons:
     c_bands      :     29.81s CPU     30.48s WALL (       7 calls)
     sum_band     :      4.34s CPU      4.45s WALL (       7 calls)
     v_of_rho     :      0.10s CPU      0.09s WALL (       7 calls)
     v_h          :      0.00s CPU      0.00s WALL (       7 calls)
     v_xc         :      0.10s CPU      0.09s WALL (       7 calls)
     newd         :      0.26s CPU      0.26s WALL (       7 calls)
     mix_rho      :      0.00s CPU      0.00s WALL (       7 calls)

     Called by c_bands:
     init_us_2    :      1.34s CPU      1.35s WALL (    2730 calls)
     cegterg      :     27.96s CPU     28.62s WALL (    1274 calls)

     Called by sum_band:
     sum_band:bec :      0.04s CPU      0.05s WALL (    1274 calls)
     addusdens    :      0.26s CPU      0.25s WALL (       7 calls)

     Called by *egterg:
     h_psi        :     15.94s CPU     16.41s WALL (    4271 calls)
     s_psi        :      1.49s CPU      1.57s WALL (    4271 calls)
     g_psi        :      0.16s CPU      0.13s WALL (    2815 calls)
     cdiaghg      :      4.40s CPU      4.32s WALL (    3907 calls)
     cegterg:over :      2.78s CPU      2.92s WALL (    2815 calls)
     cegterg:upda :      1.56s CPU      1.59s WALL (    2815 calls)
     cegterg:last :      0.99s CPU      1.05s WALL (    1274 calls)

     Called by h_psi:
     h_psi:vloc   :     12.73s CPU     13.04s WALL (    4271 calls)
     h_psi:vnl    :      3.12s CPU      3.26s WALL (    4271 calls)
     add_vuspsi   :      1.48s CPU      1.56s WALL (    4271 calls)

     General routines
     calbec       :      2.24s CPU      2.35s WALL (    5545 calls)
     fft          :      0.01s CPU      0.02s WALL (      93 calls)
     fftw         :     11.94s CPU     12.24s WALL (  100280 calls)
     davcio       :      0.01s CPU      0.05s WALL (     182 calls)

     Parallel routines
     fft_scatter  :      1.72s CPU      1.66s WALL (  100373 calls)

     PWSCF        :    38.81s CPU        39.86s WALL


   This run was terminated on:  21:57:40  18Feb2020            

=------------------------------------------------------------------------------=
   JOB DONE.
=------------------------------------------------------------------------------=
