
     Program PWSCF v.5.1 starts on 18Feb2020 at 21:56:35 

     This program is part of the open-source Quantum ESPRESSO suite
     for quantum simulation of materials; please cite
         "P. Giannozzi et al., J. Phys.:Condens. Matter 21 395502 (2009);
          URL http://www.quantum-espresso.org", 
     in publications or presentations arising from this work. More details at
     http://www.quantum-espresso.org/quote

     Parallel version (MPI), running on     1 processors
     Waiting for input...
     Reading input from standard input

     Current dimensions of program PWSCF are:
     Max number of different atomic species (ntypx) = 10
     Max number of k-points (npk) =  40000
     Max angular momentum in pseudopotentials (lmaxx) =  3

     Subspace diagonalization in iterative solution of the eigenvalue problem:
     a serial algorithm will be used


     G-vector sticks info
     --------------------
     sticks:   dense  smooth     PW     G-vecs:    dense   smooth      PW
     Sum         253     253     91                 2565     2565     561



     bravais-lattice index     =            2
     lattice parameter (alat)  =       6.6590  a.u.
     unit-cell volume          =      73.8188 (a.u.)^3
     number of atoms/cell      =            1
     number of atomic types    =            1
     number of electrons       =        18.00
     number of Kohn-Sham states=           13
     kinetic-energy cutoff     =      40.0000  Ry
     charge density cutoff     =     160.0000  Ry
     convergence threshold     =      1.0E-06
     mixing beta               =       0.7000
     number of iterations used =            8  plain     mixing
     Exchange-correlation      = PBESOL ( 1  4 10  8 0)

     celldm(1)=   6.659000  celldm(2)=   0.000000  celldm(3)=   0.000000
     celldm(4)=   0.000000  celldm(5)=   0.000000  celldm(6)=   0.000000

     crystal axes: (cart. coord. in units of alat)
               a(1) = (  -0.500000   0.000000   0.500000 )  
               a(2) = (   0.000000   0.500000   0.500000 )  
               a(3) = (  -0.500000   0.500000   0.000000 )  

     reciprocal axes: (cart. coord. in units 2 pi/alat)
               b(1) = ( -1.000000 -1.000000  1.000000 )  
               b(2) = (  1.000000  1.000000  1.000000 )  
               b(3) = ( -1.000000  1.000000 -1.000000 )  


     PseudoPot. # 1 for Ni read from file:
     ../pseudo/Ni.pbesol-spn-rrkjus_psl.1.0.0.UPF
     MD5 check sum: 6fc0a587bf949a08f2faed986b854013
     Pseudo is Ultrasoft + core correction, Zval = 18.0
     Generated using "atomic" code by A. Dal Corso  v.6.3
     Using radial grid of 1195 points,  6 beta functions with: 
                l(1) =   0
                l(2) =   0
                l(3) =   1
                l(4) =   1
                l(5) =   2
                l(6) =   2
     Q(r) pseudized with 0 coefficients 


     atomic species   valence    mass     pseudopotential
        Ni            18.00    58.69000     Ni( 1.00)

     48 Sym. Ops., with inversion, found


                                    s                        frac. trans.

      isym =  1     identity                                     

 cryst.   s( 1) = (     1          0          0      )
                  (     0          1          0      )
                  (     0          0          1      )

 cart.    s( 1) = (  1.0000000  0.0000000  0.0000000 )
                  (  0.0000000  1.0000000  0.0000000 )
                  (  0.0000000  0.0000000  1.0000000 )


      isym =  2     180 deg rotation - cart. axis [0,0,1]        

 cryst.   s( 2) = (     0          1         -1      )
                  (     1          0         -1      )
                  (     0          0         -1      )

 cart.    s( 2) = ( -1.0000000  0.0000000  0.0000000 )
                  (  0.0000000 -1.0000000  0.0000000 )
                  (  0.0000000  0.0000000  1.0000000 )


      isym =  3     180 deg rotation - cart. axis [0,1,0]        

 cryst.   s( 3) = (    -1          0          0      )
                  (    -1          0          1      )
                  (    -1          1          0      )

 cart.    s( 3) = ( -1.0000000  0.0000000  0.0000000 )
                  (  0.0000000  1.0000000  0.0000000 )
                  (  0.0000000  0.0000000 -1.0000000 )


      isym =  4     180 deg rotation - cart. axis [1,0,0]        

 cryst.   s( 4) = (     0         -1          1      )
                  (     0         -1          0      )
                  (     1         -1          0      )

 cart.    s( 4) = (  1.0000000  0.0000000  0.0000000 )
                  (  0.0000000 -1.0000000  0.0000000 )
                  (  0.0000000  0.0000000 -1.0000000 )


      isym =  5     180 deg rotation - cart. axis [1,1,0]        

 cryst.   s( 5) = (     0         -1          0      )
                  (    -1          0          0      )
                  (     0          0         -1      )

 cart.    s( 5) = (  0.0000000  1.0000000  0.0000000 )
                  (  1.0000000  0.0000000  0.0000000 )
                  (  0.0000000  0.0000000 -1.0000000 )


      isym =  6     180 deg rotation - cart. axis [1,-1,0]       

 cryst.   s( 6) = (    -1          0          1      )
                  (     0         -1          1      )
                  (     0          0          1      )

 cart.    s( 6) = (  0.0000000 -1.0000000  0.0000000 )
                  ( -1.0000000  0.0000000  0.0000000 )
                  (  0.0000000  0.0000000 -1.0000000 )


      isym =  7      90 deg rotation - cart. axis [0,0,-1]       

 cryst.   s( 7) = (     0          1          0      )
                  (     0          1         -1      )
                  (    -1          1          0      )

 cart.    s( 7) = (  0.0000000  1.0000000  0.0000000 )
                  ( -1.0000000  0.0000000  0.0000000 )
                  (  0.0000000  0.0000000  1.0000000 )


      isym =  8      90 deg rotation - cart. axis [0,0,1]        

 cryst.   s( 8) = (     1          0         -1      )
                  (     1          0          0      )
                  (     1         -1          0      )

 cart.    s( 8) = (  0.0000000 -1.0000000  0.0000000 )
                  (  1.0000000  0.0000000  0.0000000 )
                  (  0.0000000  0.0000000  1.0000000 )


      isym =  9     180 deg rotation - cart. axis [1,0,1]        

 cryst.   s( 9) = (    -1          0          0      )
                  (     0          0         -1      )
                  (     0         -1          0      )

 cart.    s( 9) = (  0.0000000  0.0000000  1.0000000 )
                  (  0.0000000 -1.0000000  0.0000000 )
                  (  1.0000000  0.0000000  0.0000000 )


      isym = 10     180 deg rotation - cart. axis [-1,0,1]       

 cryst.   s(10) = (     1          0          0      )
                  (     1         -1          0      )
                  (     1          0         -1      )

 cart.    s(10) = (  0.0000000  0.0000000 -1.0000000 )
                  (  0.0000000 -1.0000000  0.0000000 )
                  ( -1.0000000  0.0000000  0.0000000 )


      isym = 11      90 deg rotation - cart. axis [0,1,0]        

 cryst.   s(11) = (     0          1         -1      )
                  (    -1          1          0      )
                  (     0          1          0      )

 cart.    s(11) = (  0.0000000  0.0000000  1.0000000 )
                  (  0.0000000  1.0000000  0.0000000 )
                  ( -1.0000000  0.0000000  0.0000000 )


      isym = 12      90 deg rotation - cart. axis [0,-1,0]       

 cryst.   s(12) = (     0         -1          1      )
                  (     0          0          1      )
                  (    -1          0          1      )

 cart.    s(12) = (  0.0000000  0.0000000 -1.0000000 )
                  (  0.0000000  1.0000000  0.0000000 )
                  (  1.0000000  0.0000000  0.0000000 )


      isym = 13     180 deg rotation - cart. axis [0,1,1]        

 cryst.   s(13) = (    -1          1          0      )
                  (     0          1          0      )
                  (     0          1         -1      )

 cart.    s(13) = ( -1.0000000  0.0000000  0.0000000 )
                  (  0.0000000  0.0000000  1.0000000 )
                  (  0.0000000  1.0000000  0.0000000 )


      isym = 14     180 deg rotation - cart. axis [0,1,-1]       

 cryst.   s(14) = (     0          0         -1      )
                  (     0         -1          0      )
                  (    -1          0          0      )

 cart.    s(14) = ( -1.0000000  0.0000000  0.0000000 )
                  (  0.0000000  0.0000000 -1.0000000 )
                  (  0.0000000 -1.0000000  0.0000000 )


      isym = 15      90 deg rotation - cart. axis [-1,0,0]       

 cryst.   s(15) = (     0          0          1      )
                  (    -1          0          1      )
                  (     0         -1          1      )

 cart.    s(15) = (  1.0000000  0.0000000  0.0000000 )
                  (  0.0000000  0.0000000  1.0000000 )
                  (  0.0000000 -1.0000000  0.0000000 )


      isym = 16      90 deg rotation - cart. axis [1,0,0]        

 cryst.   s(16) = (     1         -1          0      )
                  (     1          0         -1      )
                  (     1          0          0      )

 cart.    s(16) = (  1.0000000  0.0000000  0.0000000 )
                  (  0.0000000  0.0000000 -1.0000000 )
                  (  0.0000000  1.0000000  0.0000000 )


      isym = 17     120 deg rotation - cart. axis [-1,-1,-1]     

 cryst.   s(17) = (    -1          0          1      )
                  (    -1          1          0      )
                  (    -1          0          0      )

 cart.    s(17) = (  0.0000000  1.0000000  0.0000000 )
                  (  0.0000000  0.0000000  1.0000000 )
                  (  1.0000000  0.0000000  0.0000000 )


      isym = 18     120 deg rotation - cart. axis [-1,1,1]       

 cryst.   s(18) = (     0          1          0      )
                  (     0          0          1      )
                  (     1          0          0      )

 cart.    s(18) = (  0.0000000 -1.0000000  0.0000000 )
                  (  0.0000000  0.0000000  1.0000000 )
                  ( -1.0000000  0.0000000  0.0000000 )


      isym = 19     120 deg rotation - cart. axis [1,1,-1]       

 cryst.   s(19) = (     1          0         -1      )
                  (     0          0         -1      )
                  (     0          1         -1      )

 cart.    s(19) = (  0.0000000  1.0000000  0.0000000 )
                  (  0.0000000  0.0000000 -1.0000000 )
                  ( -1.0000000  0.0000000  0.0000000 )


      isym = 20     120 deg rotation - cart. axis [1,-1,1]       

 cryst.   s(20) = (     0         -1          0      )
                  (     1         -1          0      )
                  (     0         -1          1      )

 cart.    s(20) = (  0.0000000 -1.0000000  0.0000000 )
                  (  0.0000000  0.0000000 -1.0000000 )
                  (  1.0000000  0.0000000  0.0000000 )


      isym = 21     120 deg rotation - cart. axis [1,1,1]        

 cryst.   s(21) = (     0          0         -1      )
                  (     0          1         -1      )
                  (     1          0         -1      )

 cart.    s(21) = (  0.0000000  0.0000000  1.0000000 )
                  (  1.0000000  0.0000000  0.0000000 )
                  (  0.0000000  1.0000000  0.0000000 )


      isym = 22     120 deg rotation - cart. axis [-1,1,-1]      

 cryst.   s(22) = (    -1          1          0      )
                  (    -1          0          0      )
                  (    -1          0          1      )

 cart.    s(22) = (  0.0000000  0.0000000  1.0000000 )
                  ( -1.0000000  0.0000000  0.0000000 )
                  (  0.0000000 -1.0000000  0.0000000 )


      isym = 23     120 deg rotation - cart. axis [1,-1,-1]      

 cryst.   s(23) = (     0          0          1      )
                  (     1          0          0      )
                  (     0          1          0      )

 cart.    s(23) = (  0.0000000  0.0000000 -1.0000000 )
                  ( -1.0000000  0.0000000  0.0000000 )
                  (  0.0000000  1.0000000  0.0000000 )


      isym = 24     120 deg rotation - cart. axis [-1,-1,1]      

 cryst.   s(24) = (     1         -1          0      )
                  (     0         -1          1      )
                  (     0         -1          0      )

 cart.    s(24) = (  0.0000000  0.0000000 -1.0000000 )
                  (  1.0000000  0.0000000  0.0000000 )
                  (  0.0000000 -1.0000000  0.0000000 )


      isym = 25     inversion                                    

 cryst.   s(25) = (    -1          0          0      )
                  (     0         -1          0      )
                  (     0          0         -1      )

 cart.    s(25) = ( -1.0000000  0.0000000  0.0000000 )
                  (  0.0000000 -1.0000000  0.0000000 )
                  (  0.0000000  0.0000000 -1.0000000 )


      isym = 26     inv. 180 deg rotation - cart. axis [0,0,1]   

 cryst.   s(26) = (     0         -1          1      )
                  (    -1          0          1      )
                  (     0          0          1      )

 cart.    s(26) = (  1.0000000  0.0000000  0.0000000 )
                  (  0.0000000  1.0000000  0.0000000 )
                  (  0.0000000  0.0000000 -1.0000000 )


      isym = 27     inv. 180 deg rotation - cart. axis [0,1,0]   

 cryst.   s(27) = (     1          0          0      )
                  (     1          0         -1      )
                  (     1         -1          0      )

 cart.    s(27) = (  1.0000000  0.0000000  0.0000000 )
                  (  0.0000000 -1.0000000  0.0000000 )
                  (  0.0000000  0.0000000  1.0000000 )


      isym = 28     inv. 180 deg rotation - cart. axis [1,0,0]   

 cryst.   s(28) = (     0          1         -1      )
                  (     0          1          0      )
                  (    -1          1          0      )

 cart.    s(28) = ( -1.0000000  0.0000000  0.0000000 )
                  (  0.0000000  1.0000000  0.0000000 )
                  (  0.0000000  0.0000000  1.0000000 )


      isym = 29     inv. 180 deg rotation - cart. axis [1,1,0]   

 cryst.   s(29) = (     0          1          0      )
                  (     1          0          0      )
                  (     0          0          1      )

 cart.    s(29) = (  0.0000000 -1.0000000  0.0000000 )
                  ( -1.0000000  0.0000000  0.0000000 )
                  (  0.0000000  0.0000000  1.0000000 )


      isym = 30     inv. 180 deg rotation - cart. axis [1,-1,0]  

 cryst.   s(30) = (     1          0         -1      )
                  (     0          1         -1      )
                  (     0          0         -1      )

 cart.    s(30) = (  0.0000000  1.0000000  0.0000000 )
                  (  1.0000000  0.0000000  0.0000000 )
                  (  0.0000000  0.0000000  1.0000000 )


      isym = 31     inv.  90 deg rotation - cart. axis [0,0,-1]  

 cryst.   s(31) = (     0         -1          0      )
                  (     0         -1          1      )
                  (     1         -1          0      )

 cart.    s(31) = (  0.0000000 -1.0000000  0.0000000 )
                  (  1.0000000  0.0000000  0.0000000 )
                  (  0.0000000  0.0000000 -1.0000000 )


      isym = 32     inv.  90 deg rotation - cart. axis [0,0,1]   

 cryst.   s(32) = (    -1          0          1      )
                  (    -1          0          0      )
                  (    -1          1          0      )

 cart.    s(32) = (  0.0000000  1.0000000  0.0000000 )
                  ( -1.0000000  0.0000000  0.0000000 )
                  (  0.0000000  0.0000000 -1.0000000 )


      isym = 33     inv. 180 deg rotation - cart. axis [1,0,1]   

 cryst.   s(33) = (     1          0          0      )
                  (     0          0          1      )
                  (     0          1          0      )

 cart.    s(33) = (  0.0000000  0.0000000 -1.0000000 )
                  (  0.0000000  1.0000000  0.0000000 )
                  ( -1.0000000  0.0000000  0.0000000 )


      isym = 34     inv. 180 deg rotation - cart. axis [-1,0,1]  

 cryst.   s(34) = (    -1          0          0      )
                  (    -1          1          0      )
                  (    -1          0          1      )

 cart.    s(34) = (  0.0000000  0.0000000  1.0000000 )
                  (  0.0000000  1.0000000  0.0000000 )
                  (  1.0000000  0.0000000  0.0000000 )


      isym = 35     inv.  90 deg rotation - cart. axis [0,1,0]   

 cryst.   s(35) = (     0         -1          1      )
                  (     1         -1          0      )
                  (     0         -1          0      )

 cart.    s(35) = (  0.0000000  0.0000000 -1.0000000 )
                  (  0.0000000 -1.0000000  0.0000000 )
                  (  1.0000000  0.0000000  0.0000000 )


      isym = 36     inv.  90 deg rotation - cart. axis [0,-1,0]  

 cryst.   s(36) = (     0          1         -1      )
                  (     0          0         -1      )
                  (     1          0         -1      )

 cart.    s(36) = (  0.0000000  0.0000000  1.0000000 )
                  (  0.0000000 -1.0000000  0.0000000 )
                  ( -1.0000000  0.0000000  0.0000000 )


      isym = 37     inv. 180 deg rotation - cart. axis [0,1,1]   

 cryst.   s(37) = (     1         -1          0      )
                  (     0         -1          0      )
                  (     0         -1          1      )

 cart.    s(37) = (  1.0000000  0.0000000  0.0000000 )
                  (  0.0000000  0.0000000 -1.0000000 )
                  (  0.0000000 -1.0000000  0.0000000 )


      isym = 38     inv. 180 deg rotation - cart. axis [0,1,-1]  

 cryst.   s(38) = (     0          0          1      )
                  (     0          1          0      )
                  (     1          0          0      )

 cart.    s(38) = (  1.0000000  0.0000000  0.0000000 )
                  (  0.0000000  0.0000000  1.0000000 )
                  (  0.0000000  1.0000000  0.0000000 )


      isym = 39     inv.  90 deg rotation - cart. axis [-1,0,0]  

 cryst.   s(39) = (     0          0         -1      )
                  (     1          0         -1      )
                  (     0          1         -1      )

 cart.    s(39) = ( -1.0000000  0.0000000  0.0000000 )
                  (  0.0000000  0.0000000 -1.0000000 )
                  (  0.0000000  1.0000000  0.0000000 )


      isym = 40     inv.  90 deg rotation - cart. axis [1,0,0]   

 cryst.   s(40) = (    -1          1          0      )
                  (    -1          0          1      )
                  (    -1          0          0      )

 cart.    s(40) = ( -1.0000000  0.0000000  0.0000000 )
                  (  0.0000000  0.0000000  1.0000000 )
                  (  0.0000000 -1.0000000  0.0000000 )


      isym = 41     inv. 120 deg rotation - cart. axis [-1,-1,-1]

 cryst.   s(41) = (     1          0         -1      )
                  (     1         -1          0      )
                  (     1          0          0      )

 cart.    s(41) = (  0.0000000 -1.0000000  0.0000000 )
                  (  0.0000000  0.0000000 -1.0000000 )
                  ( -1.0000000  0.0000000  0.0000000 )


      isym = 42     inv. 120 deg rotation - cart. axis [-1,1,1]  

 cryst.   s(42) = (     0         -1          0      )
                  (     0          0         -1      )
                  (    -1          0          0      )

 cart.    s(42) = (  0.0000000  1.0000000  0.0000000 )
                  (  0.0000000  0.0000000 -1.0000000 )
                  (  1.0000000  0.0000000  0.0000000 )


      isym = 43     inv. 120 deg rotation - cart. axis [1,1,-1]  

 cryst.   s(43) = (    -1          0          1      )
                  (     0          0          1      )
                  (     0         -1          1      )

 cart.    s(43) = (  0.0000000 -1.0000000  0.0000000 )
                  (  0.0000000  0.0000000  1.0000000 )
                  (  1.0000000  0.0000000  0.0000000 )


      isym = 44     inv. 120 deg rotation - cart. axis [1,-1,1]  

 cryst.   s(44) = (     0          1          0      )
                  (    -1          1          0      )
                  (     0          1         -1      )

 cart.    s(44) = (  0.0000000  1.0000000  0.0000000 )
                  (  0.0000000  0.0000000  1.0000000 )
                  ( -1.0000000  0.0000000  0.0000000 )


      isym = 45     inv. 120 deg rotation - cart. axis [1,1,1]   

 cryst.   s(45) = (     0          0          1      )
                  (     0         -1          1      )
                  (    -1          0          1      )

 cart.    s(45) = (  0.0000000  0.0000000 -1.0000000 )
                  ( -1.0000000  0.0000000  0.0000000 )
                  (  0.0000000 -1.0000000  0.0000000 )


      isym = 46     inv. 120 deg rotation - cart. axis [-1,1,-1] 

 cryst.   s(46) = (     1         -1          0      )
                  (     1          0          0      )
                  (     1          0         -1      )

 cart.    s(46) = (  0.0000000  0.0000000 -1.0000000 )
                  (  1.0000000  0.0000000  0.0000000 )
                  (  0.0000000  1.0000000  0.0000000 )


      isym = 47     inv. 120 deg rotation - cart. axis [1,-1,-1] 

 cryst.   s(47) = (     0          0         -1      )
                  (    -1          0          0      )
                  (     0         -1          0      )

 cart.    s(47) = (  0.0000000  0.0000000  1.0000000 )
                  (  1.0000000  0.0000000  0.0000000 )
                  (  0.0000000 -1.0000000  0.0000000 )


      isym = 48     inv. 120 deg rotation - cart. axis [-1,-1,1] 

 cryst.   s(48) = (    -1          1          0      )
                  (     0          1         -1      )
                  (     0          1          0      )

 cart.    s(48) = (  0.0000000  0.0000000  1.0000000 )
                  ( -1.0000000  0.0000000  0.0000000 )
                  (  0.0000000  1.0000000  0.0000000 )


     point group O_h (m-3m) 
     there are 10 classes
     the character table:

       E     8C3   6C2'  6C4   3C2   i     6S4   8S6   3s_h  6s_d 
A_1g   1.00  1.00  1.00  1.00  1.00  1.00  1.00  1.00  1.00  1.00
A_2g   1.00  1.00 -1.00 -1.00  1.00  1.00 -1.00  1.00  1.00 -1.00
E_g    2.00 -1.00  0.00  0.00  2.00  2.00  0.00 -1.00  2.00  0.00
T_1g   3.00  0.00 -1.00  1.00 -1.00  3.00  1.00  0.00 -1.00 -1.00
T_2g   3.00  0.00  1.00 -1.00 -1.00  3.00 -1.00  0.00 -1.00  1.00
A_1u   1.00  1.00  1.00  1.00  1.00 -1.00 -1.00 -1.00 -1.00 -1.00
A_2u   1.00  1.00 -1.00 -1.00  1.00 -1.00  1.00 -1.00 -1.00  1.00
E_u    2.00 -1.00  0.00  0.00  2.00 -2.00  0.00  1.00 -2.00  0.00
T_1u   3.00  0.00 -1.00  1.00 -1.00 -3.00 -1.00  0.00  1.00  1.00
T_2u   3.00  0.00  1.00 -1.00 -1.00 -3.00  1.00  0.00  1.00 -1.00

     the symmetry operations in each class:
     E        1
     3C2      2    4    3
     6C2'     5    6   14   13   10    9
     6C4      7    8   15   16   12   11
     8C3     17   19   20   18   24   21   22   23
     i       25
     3s_h    26   28   27
     6s_d    29   30   38   37   34   33
     6S4     31   32   39   40   36   35
     8S6     41   43   44   42   48   45   46   47

   Cartesian axes

     site n.     atom                  positions (alat units)
         1           Ni  tau(   1) = (   0.0000000   0.0000000   0.0000000  )

   Crystallographic axes

     site n.     atom                  positions (cryst. coord.)
         1           Ni  tau(   1) = (  0.0000000  0.0000000  0.0000000  )

     number of k points=   146  Marzari-Vanderbilt smearing, width (Ry)=  0.0200
                       cart. coord. in units 2pi/alat
        k(    1) = (  -0.0454545   0.0454545   0.0454545), wk =   0.0030053
        k(    2) = (  -0.1363636   0.1363636  -0.0454545), wk =   0.0090158
        k(    3) = (  -0.2272727   0.2272727  -0.1363636), wk =   0.0090158
        k(    4) = (  -0.3181818   0.3181818  -0.2272727), wk =   0.0090158
        k(    5) = (  -0.4090909   0.4090909  -0.3181818), wk =   0.0090158
        k(    6) = (   0.5000000  -0.5000000   0.5909091), wk =   0.0090158
        k(    7) = (   0.4090909  -0.4090909   0.5000000), wk =   0.0090158
        k(    8) = (   0.3181818  -0.3181818   0.4090909), wk =   0.0090158
        k(    9) = (   0.2272727  -0.2272727   0.3181818), wk =   0.0090158
        k(   10) = (   0.1363636  -0.1363636   0.2272727), wk =   0.0090158
        k(   11) = (   0.0454545  -0.0454545   0.1363636), wk =   0.0090158
        k(   12) = (  -0.0454545   0.2272727   0.0454545), wk =   0.0090158
        k(   13) = (  -0.1363636   0.3181818  -0.0454545), wk =   0.0180316
        k(   14) = (  -0.2272727   0.4090909  -0.1363636), wk =   0.0180316
        k(   15) = (  -0.3181818   0.5000000  -0.2272727), wk =   0.0180316
        k(   16) = (   0.5909091  -0.4090909   0.6818182), wk =   0.0180316
        k(   17) = (   0.5000000  -0.3181818   0.5909091), wk =   0.0180316
        k(   18) = (   0.4090909  -0.2272727   0.5000000), wk =   0.0180316
        k(   19) = (   0.3181818  -0.1363636   0.4090909), wk =   0.0180316
        k(   20) = (   0.2272727  -0.0454545   0.3181818), wk =   0.0180316
        k(   21) = (   0.1363636   0.0454545   0.2272727), wk =   0.0180316
        k(   22) = (  -0.0454545   0.4090909   0.0454545), wk =   0.0090158
        k(   23) = (  -0.1363636   0.5000000  -0.0454545), wk =   0.0180316
        k(   24) = (  -0.2272727   0.5909091  -0.1363636), wk =   0.0180316
        k(   25) = (   0.6818182  -0.3181818   0.7727273), wk =   0.0180316
        k(   26) = (   0.5909091  -0.2272727   0.6818182), wk =   0.0180316
        k(   27) = (   0.5000000  -0.1363636   0.5909091), wk =   0.0180316
        k(   28) = (   0.4090909  -0.0454545   0.5000000), wk =   0.0180316
        k(   29) = (   0.3181818   0.0454545   0.4090909), wk =   0.0180316
        k(   30) = (   0.2272727   0.1363636   0.3181818), wk =   0.0180316
        k(   31) = (  -0.0454545   0.5909091   0.0454545), wk =   0.0090158
        k(   32) = (  -0.1363636   0.6818182  -0.0454545), wk =   0.0180316
        k(   33) = (   0.7727273  -0.2272727   0.8636364), wk =   0.0180316
        k(   34) = (   0.6818182  -0.1363636   0.7727273), wk =   0.0180316
        k(   35) = (   0.5909091  -0.0454545   0.6818182), wk =   0.0180316
        k(   36) = (   0.5000000   0.0454545   0.5909091), wk =   0.0180316
        k(   37) = (   0.4090909   0.1363636   0.5000000), wk =   0.0180316
        k(   38) = (   0.3181818   0.2272727   0.4090909), wk =   0.0180316
        k(   39) = (  -0.0454545   0.7727273   0.0454545), wk =   0.0090158
        k(   40) = (   0.8636364  -0.1363636   0.9545455), wk =   0.0180316
        k(   41) = (   0.7727273  -0.0454545   0.8636364), wk =   0.0180316
        k(   42) = (   0.6818182   0.0454545   0.7727273), wk =   0.0180316
        k(   43) = (   0.5909091   0.1363636   0.6818182), wk =   0.0180316
        k(   44) = (   0.5000000   0.2272727   0.5909091), wk =   0.0180316
        k(   45) = (   0.4090909   0.3181818   0.5000000), wk =   0.0180316
        k(   46) = (  -0.0454545  -1.0454545   0.0454545), wk =   0.0090158
        k(   47) = (  -0.1363636  -0.9545455  -0.0454545), wk =   0.0180316
        k(   48) = (  -0.2272727  -0.8636364  -0.1363636), wk =   0.0180316
        k(   49) = (  -0.3181818  -0.7727273  -0.2272727), wk =   0.0180316
        k(   50) = (  -0.4090909  -0.6818182  -0.3181818), wk =   0.0180316
        k(   51) = (  -0.5000000  -0.5909091  -0.4090909), wk =   0.0090158
        k(   52) = (  -0.0454545  -0.8636364   0.0454545), wk =   0.0090158
        k(   53) = (  -0.1363636  -0.7727273  -0.0454545), wk =   0.0180316
        k(   54) = (  -0.2272727  -0.6818182  -0.1363636), wk =   0.0180316
        k(   55) = (  -0.3181818  -0.5909091  -0.2272727), wk =   0.0180316
        k(   56) = (  -0.0454545  -0.6818182   0.0454545), wk =   0.0090158
        k(   57) = (  -0.1363636  -0.5909091  -0.0454545), wk =   0.0180316
        k(   58) = (  -0.2272727  -0.5000000  -0.1363636), wk =   0.0180316
        k(   59) = (  -0.0454545  -0.5000000   0.0454545), wk =   0.0090158
        k(   60) = (  -0.1363636  -0.4090909  -0.0454545), wk =   0.0180316
        k(   61) = (  -0.0454545  -0.3181818   0.0454545), wk =   0.0090158
        k(   62) = (  -0.1363636   0.1363636   0.1363636), wk =   0.0030053
        k(   63) = (  -0.2272727   0.2272727   0.0454545), wk =   0.0090158
        k(   64) = (  -0.3181818   0.3181818  -0.0454545), wk =   0.0090158
        k(   65) = (  -0.4090909   0.4090909  -0.1363636), wk =   0.0090158
        k(   66) = (   0.5000000  -0.5000000   0.7727273), wk =   0.0090158
        k(   67) = (   0.4090909  -0.4090909   0.6818182), wk =   0.0090158
        k(   68) = (   0.3181818  -0.3181818   0.5909091), wk =   0.0090158
        k(   69) = (   0.2272727  -0.2272727   0.5000000), wk =   0.0090158
        k(   70) = (   0.1363636  -0.1363636   0.4090909), wk =   0.0090158
        k(   71) = (  -0.1363636   0.3181818   0.1363636), wk =   0.0090158
        k(   72) = (  -0.2272727   0.4090909   0.0454545), wk =   0.0180316
        k(   73) = (  -0.3181818   0.5000000  -0.0454545), wk =   0.0180316
        k(   74) = (   0.5909091  -0.4090909   0.8636364), wk =   0.0180316
        k(   75) = (   0.5000000  -0.3181818   0.7727273), wk =   0.0180316
        k(   76) = (   0.4090909  -0.2272727   0.6818182), wk =   0.0180316
        k(   77) = (   0.3181818  -0.1363636   0.5909091), wk =   0.0180316
        k(   78) = (   0.2272727  -0.0454545   0.5000000), wk =   0.0180316
        k(   79) = (  -0.1363636   0.5000000   0.1363636), wk =   0.0090158
        k(   80) = (  -0.2272727   0.5909091   0.0454545), wk =   0.0180316
        k(   81) = (   0.6818182  -0.3181818   0.9545455), wk =   0.0180316
        k(   82) = (   0.5909091  -0.2272727   0.8636364), wk =   0.0180316
        k(   83) = (   0.5000000  -0.1363636   0.7727273), wk =   0.0180316
        k(   84) = (   0.4090909  -0.0454545   0.6818182), wk =   0.0180316
        k(   85) = (   0.3181818   0.0454545   0.5909091), wk =   0.0180316
        k(   86) = (  -0.1363636   0.6818182   0.1363636), wk =   0.0090158
        k(   87) = (   0.7727273  -0.2272727   1.0454545), wk =   0.0180316
        k(   88) = (   0.6818182  -0.1363636   0.9545455), wk =   0.0180316
        k(   89) = (   0.5909091  -0.0454545   0.8636364), wk =   0.0180316
        k(   90) = (   0.5000000   0.0454545   0.7727273), wk =   0.0180316
        k(   91) = (   0.4090909   0.1363636   0.6818182), wk =   0.0180316
        k(   92) = (  -0.1363636  -1.1363636   0.1363636), wk =   0.0090158
        k(   93) = (  -0.2272727  -1.0454545   0.0454545), wk =   0.0180316
        k(   94) = (  -0.3181818  -0.9545455  -0.0454545), wk =   0.0180316
        k(   95) = (  -0.4090909  -0.8636364  -0.1363636), wk =   0.0180316
        k(   96) = (  -0.5000000  -0.7727273  -0.2272727), wk =   0.0090158
        k(   97) = (  -0.1363636  -0.9545455   0.1363636), wk =   0.0090158
        k(   98) = (  -0.2272727  -0.8636364   0.0454545), wk =   0.0180316
        k(   99) = (  -0.3181818  -0.7727273  -0.0454545), wk =   0.0180316
        k(  100) = (  -0.1363636  -0.7727273   0.1363636), wk =   0.0090158
        k(  101) = (  -0.2272727  -0.6818182   0.0454545), wk =   0.0180316
        k(  102) = (  -0.1363636  -0.5909091   0.1363636), wk =   0.0090158
        k(  103) = (  -0.2272727   0.2272727   0.2272727), wk =   0.0030053
        k(  104) = (  -0.3181818   0.3181818   0.1363636), wk =   0.0090158
        k(  105) = (  -0.4090909   0.4090909   0.0454545), wk =   0.0090158
        k(  106) = (   0.5000000  -0.5000000   0.9545455), wk =   0.0090158
        k(  107) = (   0.4090909  -0.4090909   0.8636364), wk =   0.0090158
        k(  108) = (   0.3181818  -0.3181818   0.7727273), wk =   0.0090158
        k(  109) = (   0.2272727  -0.2272727   0.6818182), wk =   0.0090158
        k(  110) = (  -0.2272727   0.4090909   0.2272727), wk =   0.0090158
        k(  111) = (  -0.3181818   0.5000000   0.1363636), wk =   0.0180316
        k(  112) = (   0.5909091  -0.4090909   1.0454545), wk =   0.0180316
        k(  113) = (   0.5000000  -0.3181818   0.9545455), wk =   0.0180316
        k(  114) = (   0.4090909  -0.2272727   0.8636364), wk =   0.0180316
        k(  115) = (   0.3181818  -0.1363636   0.7727273), wk =   0.0180316
        k(  116) = (  -0.2272727   0.5909091   0.2272727), wk =   0.0090158
        k(  117) = (   0.6818182  -0.3181818   1.1363636), wk =   0.0180316
        k(  118) = (   0.5909091  -0.2272727   1.0454545), wk =   0.0180316
        k(  119) = (   0.5000000  -0.1363636   0.9545455), wk =   0.0180316
        k(  120) = (   0.4090909  -0.0454545   0.8636364), wk =   0.0180316
        k(  121) = (  -0.2272727  -1.2272727   0.2272727), wk =   0.0090158
        k(  122) = (  -0.3181818  -1.1363636   0.1363636), wk =   0.0180316
        k(  123) = (  -0.4090909  -1.0454545   0.0454545), wk =   0.0180316
        k(  124) = (  -0.5000000  -0.9545455  -0.0454545), wk =   0.0090158
        k(  125) = (  -0.2272727  -1.0454545   0.2272727), wk =   0.0090158
        k(  126) = (  -0.3181818  -0.9545455   0.1363636), wk =   0.0180316
        k(  127) = (  -0.2272727  -0.8636364   0.2272727), wk =   0.0090158
        k(  128) = (  -0.3181818   0.3181818   0.3181818), wk =   0.0030053
        k(  129) = (  -0.4090909   0.4090909   0.2272727), wk =   0.0090158
        k(  130) = (   0.5000000  -0.5000000   1.1363636), wk =   0.0090158
        k(  131) = (   0.4090909  -0.4090909   1.0454545), wk =   0.0090158
        k(  132) = (   0.3181818  -0.3181818   0.9545455), wk =   0.0090158
        k(  133) = (  -0.3181818   0.5000000   0.3181818), wk =   0.0090158
        k(  134) = (   0.5909091  -0.4090909   1.2272727), wk =   0.0180316
        k(  135) = (   0.5000000  -0.3181818   1.1363636), wk =   0.0180316
        k(  136) = (   0.4090909  -0.2272727   1.0454545), wk =   0.0180316
        k(  137) = (  -0.3181818  -1.3181818   0.3181818), wk =   0.0090158
        k(  138) = (  -0.4090909  -1.2272727   0.2272727), wk =   0.0180316
        k(  139) = (  -0.5000000  -1.1363636   0.1363636), wk =   0.0090158
        k(  140) = (  -0.3181818  -1.1363636   0.3181818), wk =   0.0090158
        k(  141) = (  -0.4090909   0.4090909   0.4090909), wk =   0.0030053
        k(  142) = (   0.5000000  -0.5000000   1.3181818), wk =   0.0090158
        k(  143) = (   0.4090909  -0.4090909   1.2272727), wk =   0.0090158
        k(  144) = (  -0.4090909  -1.4090909   0.4090909), wk =   0.0090158
        k(  145) = (  -0.5000000  -1.3181818   0.3181818), wk =   0.0090158
        k(  146) = (   0.5000000  -0.5000000  -0.5000000), wk =   0.0015026

                       cryst. coord.
        k(    1) = (   0.0454545   0.0454545   0.0454545), wk =   0.0030053
        k(    2) = (   0.0454545   0.0454545   0.1363636), wk =   0.0090158
        k(    3) = (   0.0454545   0.0454545   0.2272727), wk =   0.0090158
        k(    4) = (   0.0454545   0.0454545   0.3181818), wk =   0.0090158
        k(    5) = (   0.0454545   0.0454545   0.4090909), wk =   0.0090158
        k(    6) = (   0.0454545   0.0454545  -0.5000000), wk =   0.0090158
        k(    7) = (   0.0454545   0.0454545  -0.4090909), wk =   0.0090158
        k(    8) = (   0.0454545   0.0454545  -0.3181818), wk =   0.0090158
        k(    9) = (   0.0454545   0.0454545  -0.2272727), wk =   0.0090158
        k(   10) = (   0.0454545   0.0454545  -0.1363636), wk =   0.0090158
        k(   11) = (   0.0454545   0.0454545  -0.0454545), wk =   0.0090158
        k(   12) = (   0.0454545   0.1363636   0.1363636), wk =   0.0090158
        k(   13) = (   0.0454545   0.1363636   0.2272727), wk =   0.0180316
        k(   14) = (   0.0454545   0.1363636   0.3181818), wk =   0.0180316
        k(   15) = (   0.0454545   0.1363636   0.4090909), wk =   0.0180316
        k(   16) = (   0.0454545   0.1363636  -0.5000000), wk =   0.0180316
        k(   17) = (   0.0454545   0.1363636  -0.4090909), wk =   0.0180316
        k(   18) = (   0.0454545   0.1363636  -0.3181818), wk =   0.0180316
        k(   19) = (   0.0454545   0.1363636  -0.2272727), wk =   0.0180316
        k(   20) = (   0.0454545   0.1363636  -0.1363636), wk =   0.0180316
        k(   21) = (   0.0454545   0.1363636  -0.0454545), wk =   0.0180316
        k(   22) = (   0.0454545   0.2272727   0.2272727), wk =   0.0090158
        k(   23) = (   0.0454545   0.2272727   0.3181818), wk =   0.0180316
        k(   24) = (   0.0454545   0.2272727   0.4090909), wk =   0.0180316
        k(   25) = (   0.0454545   0.2272727  -0.5000000), wk =   0.0180316
        k(   26) = (   0.0454545   0.2272727  -0.4090909), wk =   0.0180316
        k(   27) = (   0.0454545   0.2272727  -0.3181818), wk =   0.0180316
        k(   28) = (   0.0454545   0.2272727  -0.2272727), wk =   0.0180316
        k(   29) = (   0.0454545   0.2272727  -0.1363636), wk =   0.0180316
        k(   30) = (   0.0454545   0.2272727  -0.0454545), wk =   0.0180316
        k(   31) = (   0.0454545   0.3181818   0.3181818), wk =   0.0090158
        k(   32) = (   0.0454545   0.3181818   0.4090909), wk =   0.0180316
        k(   33) = (   0.0454545   0.3181818  -0.5000000), wk =   0.0180316
        k(   34) = (   0.0454545   0.3181818  -0.4090909), wk =   0.0180316
        k(   35) = (   0.0454545   0.3181818  -0.3181818), wk =   0.0180316
        k(   36) = (   0.0454545   0.3181818  -0.2272727), wk =   0.0180316
        k(   37) = (   0.0454545   0.3181818  -0.1363636), wk =   0.0180316
        k(   38) = (   0.0454545   0.3181818  -0.0454545), wk =   0.0180316
        k(   39) = (   0.0454545   0.4090909   0.4090909), wk =   0.0090158
        k(   40) = (   0.0454545   0.4090909  -0.5000000), wk =   0.0180316
        k(   41) = (   0.0454545   0.4090909  -0.4090909), wk =   0.0180316
        k(   42) = (   0.0454545   0.4090909  -0.3181818), wk =   0.0180316
        k(   43) = (   0.0454545   0.4090909  -0.2272727), wk =   0.0180316
        k(   44) = (   0.0454545   0.4090909  -0.1363636), wk =   0.0180316
        k(   45) = (   0.0454545   0.4090909  -0.0454545), wk =   0.0180316
        k(   46) = (   0.0454545  -0.5000000  -0.5000000), wk =   0.0090158
        k(   47) = (   0.0454545  -0.5000000  -0.4090909), wk =   0.0180316
        k(   48) = (   0.0454545  -0.5000000  -0.3181818), wk =   0.0180316
        k(   49) = (   0.0454545  -0.5000000  -0.2272727), wk =   0.0180316
        k(   50) = (   0.0454545  -0.5000000  -0.1363636), wk =   0.0180316
        k(   51) = (   0.0454545  -0.5000000  -0.0454545), wk =   0.0090158
        k(   52) = (   0.0454545  -0.4090909  -0.4090909), wk =   0.0090158
        k(   53) = (   0.0454545  -0.4090909  -0.3181818), wk =   0.0180316
        k(   54) = (   0.0454545  -0.4090909  -0.2272727), wk =   0.0180316
        k(   55) = (   0.0454545  -0.4090909  -0.1363636), wk =   0.0180316
        k(   56) = (   0.0454545  -0.3181818  -0.3181818), wk =   0.0090158
        k(   57) = (   0.0454545  -0.3181818  -0.2272727), wk =   0.0180316
        k(   58) = (   0.0454545  -0.3181818  -0.1363636), wk =   0.0180316
        k(   59) = (   0.0454545  -0.2272727  -0.2272727), wk =   0.0090158
        k(   60) = (   0.0454545  -0.2272727  -0.1363636), wk =   0.0180316
        k(   61) = (   0.0454545  -0.1363636  -0.1363636), wk =   0.0090158
        k(   62) = (   0.1363636   0.1363636   0.1363636), wk =   0.0030053
        k(   63) = (   0.1363636   0.1363636   0.2272727), wk =   0.0090158
        k(   64) = (   0.1363636   0.1363636   0.3181818), wk =   0.0090158
        k(   65) = (   0.1363636   0.1363636   0.4090909), wk =   0.0090158
        k(   66) = (   0.1363636   0.1363636  -0.5000000), wk =   0.0090158
        k(   67) = (   0.1363636   0.1363636  -0.4090909), wk =   0.0090158
        k(   68) = (   0.1363636   0.1363636  -0.3181818), wk =   0.0090158
        k(   69) = (   0.1363636   0.1363636  -0.2272727), wk =   0.0090158
        k(   70) = (   0.1363636   0.1363636  -0.1363636), wk =   0.0090158
        k(   71) = (   0.1363636   0.2272727   0.2272727), wk =   0.0090158
        k(   72) = (   0.1363636   0.2272727   0.3181818), wk =   0.0180316
        k(   73) = (   0.1363636   0.2272727   0.4090909), wk =   0.0180316
        k(   74) = (   0.1363636   0.2272727  -0.5000000), wk =   0.0180316
        k(   75) = (   0.1363636   0.2272727  -0.4090909), wk =   0.0180316
        k(   76) = (   0.1363636   0.2272727  -0.3181818), wk =   0.0180316
        k(   77) = (   0.1363636   0.2272727  -0.2272727), wk =   0.0180316
        k(   78) = (   0.1363636   0.2272727  -0.1363636), wk =   0.0180316
        k(   79) = (   0.1363636   0.3181818   0.3181818), wk =   0.0090158
        k(   80) = (   0.1363636   0.3181818   0.4090909), wk =   0.0180316
        k(   81) = (   0.1363636   0.3181818  -0.5000000), wk =   0.0180316
        k(   82) = (   0.1363636   0.3181818  -0.4090909), wk =   0.0180316
        k(   83) = (   0.1363636   0.3181818  -0.3181818), wk =   0.0180316
        k(   84) = (   0.1363636   0.3181818  -0.2272727), wk =   0.0180316
        k(   85) = (   0.1363636   0.3181818  -0.1363636), wk =   0.0180316
        k(   86) = (   0.1363636   0.4090909   0.4090909), wk =   0.0090158
        k(   87) = (   0.1363636   0.4090909  -0.5000000), wk =   0.0180316
        k(   88) = (   0.1363636   0.4090909  -0.4090909), wk =   0.0180316
        k(   89) = (   0.1363636   0.4090909  -0.3181818), wk =   0.0180316
        k(   90) = (   0.1363636   0.4090909  -0.2272727), wk =   0.0180316
        k(   91) = (   0.1363636   0.4090909  -0.1363636), wk =   0.0180316
        k(   92) = (   0.1363636  -0.5000000  -0.5000000), wk =   0.0090158
        k(   93) = (   0.1363636  -0.5000000  -0.4090909), wk =   0.0180316
        k(   94) = (   0.1363636  -0.5000000  -0.3181818), wk =   0.0180316
        k(   95) = (   0.1363636  -0.5000000  -0.2272727), wk =   0.0180316
        k(   96) = (   0.1363636  -0.5000000  -0.1363636), wk =   0.0090158
        k(   97) = (   0.1363636  -0.4090909  -0.4090909), wk =   0.0090158
        k(   98) = (   0.1363636  -0.4090909  -0.3181818), wk =   0.0180316
        k(   99) = (   0.1363636  -0.4090909  -0.2272727), wk =   0.0180316
        k(  100) = (   0.1363636  -0.3181818  -0.3181818), wk =   0.0090158
        k(  101) = (   0.1363636  -0.3181818  -0.2272727), wk =   0.0180316
        k(  102) = (   0.1363636  -0.2272727  -0.2272727), wk =   0.0090158
        k(  103) = (   0.2272727   0.2272727   0.2272727), wk =   0.0030053
        k(  104) = (   0.2272727   0.2272727   0.3181818), wk =   0.0090158
        k(  105) = (   0.2272727   0.2272727   0.4090909), wk =   0.0090158
        k(  106) = (   0.2272727   0.2272727  -0.5000000), wk =   0.0090158
        k(  107) = (   0.2272727   0.2272727  -0.4090909), wk =   0.0090158
        k(  108) = (   0.2272727   0.2272727  -0.3181818), wk =   0.0090158
        k(  109) = (   0.2272727   0.2272727  -0.2272727), wk =   0.0090158
        k(  110) = (   0.2272727   0.3181818   0.3181818), wk =   0.0090158
        k(  111) = (   0.2272727   0.3181818   0.4090909), wk =   0.0180316
        k(  112) = (   0.2272727   0.3181818  -0.5000000), wk =   0.0180316
        k(  113) = (   0.2272727   0.3181818  -0.4090909), wk =   0.0180316
        k(  114) = (   0.2272727   0.3181818  -0.3181818), wk =   0.0180316
        k(  115) = (   0.2272727   0.3181818  -0.2272727), wk =   0.0180316
        k(  116) = (   0.2272727   0.4090909   0.4090909), wk =   0.0090158
        k(  117) = (   0.2272727   0.4090909  -0.5000000), wk =   0.0180316
        k(  118) = (   0.2272727   0.4090909  -0.4090909), wk =   0.0180316
        k(  119) = (   0.2272727   0.4090909  -0.3181818), wk =   0.0180316
        k(  120) = (   0.2272727   0.4090909  -0.2272727), wk =   0.0180316
        k(  121) = (   0.2272727  -0.5000000  -0.5000000), wk =   0.0090158
        k(  122) = (   0.2272727  -0.5000000  -0.4090909), wk =   0.0180316
        k(  123) = (   0.2272727  -0.5000000  -0.3181818), wk =   0.0180316
        k(  124) = (   0.2272727  -0.5000000  -0.2272727), wk =   0.0090158
        k(  125) = (   0.2272727  -0.4090909  -0.4090909), wk =   0.0090158
        k(  126) = (   0.2272727  -0.4090909  -0.3181818), wk =   0.0180316
        k(  127) = (   0.2272727  -0.3181818  -0.3181818), wk =   0.0090158
        k(  128) = (   0.3181818   0.3181818   0.3181818), wk =   0.0030053
        k(  129) = (   0.3181818   0.3181818   0.4090909), wk =   0.0090158
        k(  130) = (   0.3181818   0.3181818  -0.5000000), wk =   0.0090158
        k(  131) = (   0.3181818   0.3181818  -0.4090909), wk =   0.0090158
        k(  132) = (   0.3181818   0.3181818  -0.3181818), wk =   0.0090158
        k(  133) = (   0.3181818   0.4090909   0.4090909), wk =   0.0090158
        k(  134) = (   0.3181818   0.4090909  -0.5000000), wk =   0.0180316
        k(  135) = (   0.3181818   0.4090909  -0.4090909), wk =   0.0180316
        k(  136) = (   0.3181818   0.4090909  -0.3181818), wk =   0.0180316
        k(  137) = (   0.3181818  -0.5000000  -0.5000000), wk =   0.0090158
        k(  138) = (   0.3181818  -0.5000000  -0.4090909), wk =   0.0180316
        k(  139) = (   0.3181818  -0.5000000  -0.3181818), wk =   0.0090158
        k(  140) = (   0.3181818  -0.4090909  -0.4090909), wk =   0.0090158
        k(  141) = (   0.4090909   0.4090909   0.4090909), wk =   0.0030053
        k(  142) = (   0.4090909   0.4090909  -0.5000000), wk =   0.0090158
        k(  143) = (   0.4090909   0.4090909  -0.4090909), wk =   0.0090158
        k(  144) = (   0.4090909  -0.5000000  -0.5000000), wk =   0.0090158
        k(  145) = (   0.4090909  -0.5000000  -0.4090909), wk =   0.0090158
        k(  146) = (  -0.5000000  -0.5000000  -0.5000000), wk =   0.0015026

     Dense  grid:     2565 G-vectors     FFT dimensions: (  20,  20,  20)

     Largest allocated arrays     est. size (Mb)     dimensions
        Kohn-Sham Wavefunctions         0.07 Mb     (     332,   13)
        NL pseudopotentials             0.09 Mb     (     332,   18)
        Each V/rho on FFT grid          0.12 Mb     (    8000)
        Each G-vector array             0.02 Mb     (    2565)
        G-vector shells                 0.00 Mb     (      62)
     Largest temporary arrays     est. size (Mb)     dimensions
        Auxiliary wavefunctions         0.26 Mb     (     332,   52)
        Each subspace H/S matrix        0.04 Mb     (      52,   52)
        Each <psi_i|beta_j> matrix      0.00 Mb     (      18,   13)
        Arrays for rho mixing           0.98 Mb     (    8000,    8)

     Check: negative/imaginary core charge=   -0.000044    0.000000

     Initial potential from superposition of free atoms

     starting charge   17.99977, renormalised to   18.00000
     Starting wfc are   10 randomized atomic wfcs +    3 random wfc

     total cpu time spent up to now is        2.8 secs

     per-process dynamical memory:    17.6 Mb

     Self-consistent Calculation

     iteration #  1     ecut=    40.00 Ry     beta=0.70
     Davidson diagonalization with overlap
     ethr =  1.00E-02,  avg # of iterations =  4.2

     Threshold (ethr) on eigenvalues was too large:
     Diagonalizing with lowered threshold

     Davidson diagonalization with overlap
     ethr =  1.95E-04,  avg # of iterations =  1.2

     total cpu time spent up to now is        8.8 secs

     total energy              =    -338.86616024 Ry
     Harris-Foulkes estimate   =    -338.88772021 Ry
     estimated scf accuracy    <       0.03633404 Ry

     iteration #  2     ecut=    40.00 Ry     beta=0.70
     Davidson diagonalization with overlap
     ethr =  2.02E-04,  avg # of iterations =  2.0

     total cpu time spent up to now is       12.0 secs

     total energy              =    -338.85836119 Ry
     Harris-Foulkes estimate   =    -338.89506527 Ry
     estimated scf accuracy    <       0.09520132 Ry

     iteration #  3     ecut=    40.00 Ry     beta=0.70
     Davidson diagonalization with overlap
     ethr =  2.02E-04,  avg # of iterations =  2.0

     total cpu time spent up to now is       15.4 secs

     total energy              =    -338.87735291 Ry
     Harris-Foulkes estimate   =    -338.87859010 Ry
     estimated scf accuracy    <       0.00454040 Ry

     iteration #  4     ecut=    40.00 Ry     beta=0.70
     Davidson diagonalization with overlap
     ethr =  2.52E-05,  avg # of iterations =  2.0

     total cpu time spent up to now is       18.6 secs

     total energy              =    -338.87796067 Ry
     Harris-Foulkes estimate   =    -338.87795606 Ry
     estimated scf accuracy    <       0.00002402 Ry

     iteration #  5     ecut=    40.00 Ry     beta=0.70
     Davidson diagonalization with overlap
     ethr =  1.33E-07,  avg # of iterations =  2.8

     total cpu time spent up to now is       21.8 secs

     total energy              =    -338.87797086 Ry
     Harris-Foulkes estimate   =    -338.87797139 Ry
     estimated scf accuracy    <       0.00000160 Ry

     iteration #  6     ecut=    40.00 Ry     beta=0.70
     Davidson diagonalization with overlap
     ethr =  8.89E-09,  avg # of iterations =  1.4

     total cpu time spent up to now is       24.2 secs

     End of self-consistent calculation

          k =-0.0455 0.0455 0.0455 (   331 PWs)   bands (ev):

   -85.6260 -45.6202 -45.6186 -45.6186   8.7583  15.5306  15.5701  15.5701
    16.6143  16.6143  40.8738  43.7748  44.7512

     occupation numbers 
     1.0000   1.0000   1.0000   1.0000   1.0000   1.0000   1.0000   1.0000
     1.0002   1.0002   0.0000   0.0000   0.0000

          k =-0.1364 0.1364-0.0455 (   317 PWs)   bands (ev):

   -85.6177 -45.5300 -45.4902 -45.3791   9.2066  15.5581  15.6949  15.7823
    16.6646  16.7133  39.0599  41.3547  43.6312

     occupation numbers 
     1.0000   1.0000   1.0000   1.0000   1.0000   1.0000   1.0000   1.0000
     1.0006   1.0013   0.0000   0.0000   0.0000

          k =-0.2273 0.2273-0.1364 (   316 PWs)   bands (ev):

   -85.6101 -45.4993 -45.4781 -45.4392  10.2010  15.3133  15.8495  15.8610
    16.6414  16.8698  34.6518  40.2590  43.1189

     occupation numbers 
     1.0000   1.0000   1.0000   1.0000   1.0000   1.0000   1.0000   1.0000
     1.0004   1.0124   0.0000   0.0000   0.0000

          k =-0.3182 0.3182-0.2273 (   309 PWs)   bands (ev):

   -85.5976 -45.4375 -45.3824 -45.3570  11.5845  15.2634  15.8084  15.8851
    17.0301  17.2280  30.2835  39.6006  42.1932

     occupation numbers 
     1.0000   1.0000   1.0000   1.0000   1.0000   1.0000   1.0000   1.0000
     1.0542   1.0589   0.0000   0.0000   0.0000

          k =-0.4091 0.4091-0.3182 (   313 PWs)   bands (ev):

   -85.5899 -45.5487 -45.3893 -45.3759  12.7529  15.7128  15.7446  15.7992
    17.3294  17.5247  26.4348  39.2346  41.4024

     occupation numbers 
     1.0000   1.0000   1.0000   1.0000   1.0000   1.0000   1.0000   1.0000
     0.9267   0.4288   0.0000   0.0000   0.0000

          k = 0.5000-0.5000 0.5909 (   319 PWs)   bands (ev):

   -85.5868 -45.5507 -45.5022 -45.4631  13.1937  15.5792  15.6544  16.6817
    17.4155  17.9367  23.9075  39.1579  41.2492

     occupation numbers 
     1.0000   1.0000   1.0000   1.0000   1.0000   1.0000   1.0000   1.0008
     0.7256   0.0045   0.0000   0.0000   0.0000

          k = 0.4091-0.4091 0.5000 (   317 PWs)   bands (ev):

   -85.5872 -45.5390 -45.4587 -45.4533  13.1273  15.6169  15.6946  16.4538
    17.4564  17.7280  24.5019  39.3855  41.0146

     occupation numbers 
     1.0000   1.0000   1.0000   1.0000   1.0000   1.0000   1.0000   1.0000
     0.6141   0.0769   0.0000   0.0000   0.0000

          k = 0.3182-0.3182 0.4091 (   313 PWs)   bands (ev):

   -85.5925 -45.5341 -45.4040 -45.3735  12.4398  15.5147  15.7390  15.8083
    17.2641  17.3502  27.6132  39.9245  40.8305

     occupation numbers 
     1.0000   1.0000   1.0000   1.0000   1.0000   1.0000   1.0000   1.0000
     1.0263   0.8844   0.0000   0.0000   0.0000

          k = 0.2273-0.2273 0.3182 (   311 PWs)   bands (ev):

   -85.6017 -45.4516 -45.4349 -45.3612  11.1054  15.2293  15.8619  15.8717
    16.9337  17.0546  31.6982  40.6583  41.1707

     occupation numbers 
     1.0000   1.0000   1.0000   1.0000   1.0000   1.0000   1.0000   1.0000
     1.0247   1.0627   0.0000   0.0000   0.0000

          k = 0.1364-0.1364 0.2273 (   315 PWs)   bands (ev):

   -85.6127 -45.4905 -45.4601 -45.4193   9.8168  15.3695  15.8407  15.8706
    16.6264  16.8153  36.1705  41.3956  41.9813

     occupation numbers 
     1.0000   1.0000   1.0000   1.0000   1.0000   1.0000   1.0000   1.0000
     1.0003   1.0062   0.0000   0.0000   0.0000

          k = 0.0455-0.0455 0.1364 (   322 PWs)   bands (ev):

   -85.6210 -45.5566 -45.5457 -45.4562   8.9885  15.5100  15.6750  15.6892
    16.6462  16.7081  40.1873  42.5599  43.2221

     occupation numbers 
     1.0000   1.0000   1.0000   1.0000   1.0000   1.0000   1.0000   1.0000
     1.0004   1.0012   0.0000   0.0000   0.0000

          k =-0.0455 0.2273 0.0455 (   318 PWs)   bands (ev):

   -85.6164 -45.5352 -45.5192 -45.3889   9.4098  15.3972  15.8403  15.8406
    16.5321  16.7783  39.1844  41.2961  41.5109

     occupation numbers 
     1.0000   1.0000   1.0000   1.0000   1.0000   1.0000   1.0000   1.0000
     1.0000   1.0037   0.0000   0.0000   0.0000

          k =-0.1364 0.3182-0.0455 (   316 PWs)   bands (ev):

   -85.6098 -45.5171 -45.4777 -45.4192  10.2078  15.1982  15.9542  16.0190
    16.4499  16.9206  36.4313  38.4924  41.8060

     occupation numbers 
     1.0000   1.0000   1.0000   1.0000   1.0000   1.0000   1.0000   1.0000
     1.0000   1.0217   0.0000   0.0000   0.0000

          k =-0.2273 0.4091-0.1364 (   313 PWs)   bands (ev):

   -85.5997 -45.4931 -45.4353 -45.3988  11.4636  15.0387  15.8195  16.0716
    16.8045  17.2426  31.9747  37.6417  40.7166

     occupation numbers 
     1.0000   1.0000   1.0000   1.0000   1.0000   1.0000   1.0000   1.0000
     1.0054   1.0475   0.0000   0.0000   0.0000

          k =-0.3182 0.5000-0.2273 (   314 PWs)   bands (ev):

   -85.5908 -45.5590 -45.4431 -45.3624  12.7572  15.1943  15.6355  15.9952
    17.2712  17.6926  27.8812  37.2640  39.3903

     occupation numbers 
     1.0000   1.0000   1.0000   1.0000   1.0000   1.0000   1.0000   1.0000
     1.0180   0.1116   0.0000   0.0000   0.0000

          k = 0.5909-0.4091 0.6818 (   315 PWs)   bands (ev):

   -85.5850 -45.5424 -45.4760 -45.3830  13.3874  15.3579  15.8403  15.9261
    17.4623  18.7465  24.6723  37.1068  38.4712

     occupation numbers 
     1.0000   1.0000   1.0000   1.0000   1.0000   1.0000   1.0000   1.0000
     0.5978   0.0000   0.0000   0.0000   0.0000

          k = 0.5000-0.3182 0.5909 (   317 PWs)   bands (ev):

   -85.5847 -45.5529 -45.4621 -45.4524  13.4569  15.3841  15.8487  15.9969
    17.4000  19.0888  23.9891  36.5637  38.8969

     occupation numbers 
     1.0000   1.0000   1.0000   1.0000   1.0000   1.0000   1.0000   1.0000
     0.7662   0.0000   0.0000   0.0000   0.0000

          k = 0.4091-0.2273 0.5000 (   316 PWs)   bands (ev):

   -85.5891 -45.5900 -45.4310 -45.4178  13.0560  15.3829  15.5497  15.9264
    17.2084  18.1099  26.6701  36.2017  40.1429

     occupation numbers 
     1.0000   1.0000   1.0000   1.0000   1.0000   1.0000   1.0000   1.0000
     1.0704   0.0002   0.0000   0.0000   0.0000

          k = 0.3182-0.1364 0.4091 (   314 PWs)   bands (ev):

   -85.5970 -45.5011 -45.4673 -45.3986  11.9301  15.0862  15.7099  16.0464
    16.8025  17.4783  30.5613  36.3335  41.7965

     occupation numbers 
     1.0000   1.0000   1.0000   1.0000   1.0000   1.0000   1.0000   1.0000
     1.0052   0.5535   0.0000   0.0000   0.0000

          k = 0.2273-0.0455 0.3182 (   315 PWs)   bands (ev):

   -85.6069 -45.5066 -45.4480 -45.4377  10.5884  15.1917  15.8710  16.0271
    16.4901  17.0563  34.9103  37.0122  43.5020

     occupation numbers 
     1.0000   1.0000   1.0000   1.0000   1.0000   1.0000   1.0000   1.0000
     1.0000   1.0632   0.0000   0.0000   0.0000

          k = 0.1364 0.0455 0.2273 (   317 PWs)   bands (ev):

   -85.6147 -45.5138 -45.4893 -45.4211   9.6146  15.4013  15.8157  15.8488
    16.5556  16.8132  37.7325  39.9100  42.9718

     occupation numbers 
     1.0000   1.0000   1.0000   1.0000   1.0000   1.0000   1.0000   1.0000
     1.0001   1.0060   0.0000   0.0000   0.0000

          k =-0.0455 0.4091 0.0455 (   310 PWs)   bands (ev):

   -85.6032 -45.4475 -45.4235 -45.3374  10.7814  14.9710  16.1384  16.3039
    16.4621  17.0295  36.8218  38.2180  39.1478

     occupation numbers 
     1.0000   1.0000   1.0000   1.0000   1.0000   1.0000   1.0000   1.0000
     1.0000   1.0540   0.0000   0.0000   0.0000

          k =-0.1364 0.5000-0.0455 (   313 PWs)   bands (ev):

   -85.5969 -45.5058 -45.4315 -45.4181  11.7852  14.7382  15.8768  16.5207
    16.7479  17.2534  34.0264  35.8522  38.1635

     occupation numbers 
     1.0000   1.0000   1.0000   1.0000   1.0000   1.0000   1.0000   1.0000
     1.0023   1.0376   0.0000   0.0000   0.0000

          k =-0.2273 0.5909-0.1364 (   319 PWs)   bands (ev):

   -85.5910 -45.6053 -45.5060 -45.4765  12.9360  14.6306  15.5839  16.4035
    17.2709  17.8382  29.7963  35.1804  36.2829

     occupation numbers 
     1.0000   1.0000   1.0000   1.0000   1.0000   1.0000   1.0000   1.0000
     1.0184   0.0197   0.0000   0.0000   0.0000

          k = 0.6818-0.3182 0.7727 (   317 PWs)   bands (ev):

   -85.5838 -45.5583 -45.4914 -45.4588  13.7171  14.7603  15.4782  16.3129
    17.4938  19.3708  26.0973  34.1034  35.7947

     occupation numbers 
     1.0000   1.0000   1.0000   1.0000   1.0000   1.0000   1.0000   1.0000
     0.5111   0.0000   0.0000   0.0000   0.0000

          k = 0.5909-0.2273 0.6818 (   311 PWs)   bands (ev):

   -85.5795 -45.4767 -45.4058 -45.3990  13.9765  14.8942  15.5911  16.2508
    17.4426  20.9231  23.9827  32.8921  36.5879

     occupation numbers 
     1.0000   1.0000   1.0000   1.0000   1.0000   1.0000   1.0000   1.0000
     0.6522   0.0000   0.0000   0.0000   0.0000

          k = 0.5000-0.1364 0.5909 (   316 PWs)   bands (ev):

   -85.5836 -45.5529 -45.4756 -45.4232  13.8389  15.0173  15.2961  16.2318
    17.1571  19.6047  26.1176  32.1714  38.0302

     occupation numbers 
     1.0000   1.0000   1.0000   1.0000   1.0000   1.0000   1.0000   1.0000
     1.0832   0.0000   0.0000   0.0000   0.0000

          k = 0.4091-0.0455 0.5000 (   316 PWs)   bands (ev):

   -85.5904 -45.5571 -45.4933 -45.4100  13.0433  14.9445  15.4005  16.3392
    16.7089  18.2878  29.7920  32.0966  39.9325

     occupation numbers 
     1.0000   1.0000   1.0000   1.0000   1.0000   1.0000   1.0000   1.0000
     1.0012   0.0000   0.0000   0.0000   0.0000

          k = 0.3182 0.0455 0.4091 (   314 PWs)   bands (ev):

   -85.5979 -45.5026 -45.4808 -45.3911  11.8081  15.0109  15.7092  16.2659
    16.5302  17.5199  32.2300  34.3700  42.0341

     occupation numbers 
     1.0000   1.0000   1.0000   1.0000   1.0000   1.0000   1.0000   1.0000
     1.0000   0.4414   0.0000   0.0000   0.0000

          k = 0.2273 0.1364 0.3182 (   314 PWs)   bands (ev):

   -85.6052 -45.4866 -45.4461 -45.4209  10.7656  15.1995  15.8526  15.9674
    16.6559  17.0496  33.2544  38.9241  42.2115

     occupation numbers 
     1.0000   1.0000   1.0000   1.0000   1.0000   1.0000   1.0000   1.0000
     1.0005   1.0610   0.0000   0.0000   0.0000

          k =-0.0455 0.5909 0.0455 (   315 PWs)   bands (ev):

   -85.5925 -45.5651 -45.4660 -45.4390  12.4134  14.4505  16.1318  16.8174
    16.9326  17.2325  34.3843  35.3017  35.4098

     occupation numbers 
     1.0000   1.0000   1.0000   1.0000   1.0000   1.0000   1.0000   1.0064
     1.0245   1.0557   0.0000   0.0000   0.0000

          k =-0.1364 0.6818-0.0455 (   319 PWs)   bands (ev):

   -85.5873 -45.6403 -45.5284 -45.4547  13.1046  14.2715  16.1436  16.9671
    17.2577  17.8444  31.9615  32.9485  33.9468

     occupation numbers 
     1.0000   1.0000   1.0000   1.0000   1.0000   1.0000   1.0000   1.0337
     1.0332   0.0180   0.0000   0.0000   0.0000

          k = 0.7727-0.2273 0.8636 (   316 PWs)   bands (ev):

   -85.5803 -45.5441 -45.5141 -45.4329  13.6838  14.2855  15.9517  16.8507
    17.4981  19.7163  28.2040  31.1154  33.7984

     occupation numbers 
     1.0000   1.0000   1.0000   1.0000   1.0000   1.0000   1.0000   1.0098
     0.4993   0.0000   0.0000   0.0000   0.0000

          k = 0.6818-0.1364 0.7727 (   315 PWs)   bands (ev):

   -85.5773 -45.5255 -45.4770 -45.4252  14.1065  14.4162  15.6357  16.7178
    17.4862  22.1506  24.9179  29.7077  34.5394

     occupation numbers 
     1.0000   1.0000   1.0000   1.0000   1.0000   1.0000   1.0000   1.0014
     0.5317   0.0000   0.0000   0.0000   0.0000

          k = 0.5909-0.0455 0.6818 (   314 PWs)   bands (ev):

   -85.5780 -45.5078 -45.4604 -45.4038  14.3749  14.5850  15.2685  16.6202
    17.2306  21.7360  25.5558  28.9806  35.9775

     occupation numbers 
     1.0000   1.0000   1.0000   1.0000   1.0000   1.0000   1.0000   1.0003
     1.0570   0.0000   0.0000   0.0000   0.0000

          k = 0.5000 0.0455 0.5909 (   315 PWs)   bands (ev):

   -85.5830 -45.5070 -45.4890 -45.4200  13.9766  14.9587  15.0803  16.4168
    16.9817  19.6871  27.5824  30.2908  37.8785

     occupation numbers 
     1.0000   1.0000   1.0000   1.0000   1.0000   1.0000   1.0000   1.0000
     1.0381   0.0000   0.0000   0.0000   0.0000

          k = 0.4091 0.1364 0.5000 (   314 PWs)   bands (ev):

   -85.5893 -45.5581 -45.4544 -45.3712  13.0572  15.0937  15.4688  16.1312
    16.9929  18.2341  28.1698  34.0584  40.0100

     occupation numbers 
     1.0000   1.0000   1.0000   1.0000   1.0000   1.0000   1.0000   1.0000
     1.0417   0.0000   0.0000   0.0000   0.0000

          k = 0.3182 0.2273 0.4091 (   313 PWs)   bands (ev):

   -85.5948 -45.5019 -45.4566 -45.3607  12.1524  15.2492  15.7202  15.8986
    17.1027  17.3931  29.0032  38.4037  41.2247

     occupation numbers 
     1.0000   1.0000   1.0000   1.0000   1.0000   1.0000   1.0000   1.0000
     1.0770   0.7838   0.0000   0.0000   0.0000

          k =-0.0455 0.7727 0.0455 (   322 PWs)   bands (ev):

   -85.5841 -45.6455 -45.5571 -45.5566  13.2173  14.0296  17.0129  17.2045
    17.4114  18.0313  30.4556  32.6695  33.3580

     occupation numbers 
     1.0000   1.0000   1.0000   1.0000   1.0000   1.0000   1.0484   1.0722
     0.7364   0.0008   0.0000   0.0000   0.0000

          k = 0.8636-0.1364 0.9545 (   318 PWs)   bands (ev):

   -85.5783 -45.5732 -45.5426 -45.4765  13.4218  13.9756  16.8597  17.2927
    17.5612  19.7843  28.5975  30.8349  32.4155

     occupation numbers 
     1.0000   1.0000   1.0000   1.0000   1.0000   1.0000   1.0110   0.9892
     0.3390   0.0000   0.0000   0.0000   0.0000

          k = 0.7727-0.0455 0.8636 (   316 PWs)   bands (ev):

   -85.5757 -45.5226 -45.4934 -45.4777  13.7284  14.1112  16.3472  17.1056
    17.5939  21.9796  26.9897  28.0590  32.9657

     occupation numbers 
     1.0000   1.0000   1.0000   1.0000   1.0000   1.0000   1.0000   1.0776
     0.2673   0.0000   0.0000   0.0000   0.0000

          k = 0.6818 0.0455 0.7727 (   313 PWs)   bands (ev):

   -85.5751 -45.5185 -45.4457 -45.3848  14.1025  14.3986  15.7341  16.8713
    17.4547  23.5121  24.4949  28.1753  34.3035

     occupation numbers 
     1.0000   1.0000   1.0000   1.0000   1.0000   1.0000   1.0000   1.0126
     0.6189   0.0000   0.0000   0.0000   0.0000

          k = 0.5909 0.1364 0.6818 (   313 PWs)   bands (ev):

   -85.5785 -45.4659 -45.4435 -45.4349  14.2194  14.6975  15.3972  16.4530
    17.3322  21.5584  24.5214  30.7193  36.1783

     occupation numbers 
     1.0000   1.0000   1.0000   1.0000   1.0000   1.0000   1.0000   1.0000
     0.9214   0.0000   0.0000   0.0000   0.0000

          k = 0.5000 0.2273 0.5909 (   314 PWs)   bands (ev):

   -85.5833 -45.5249 -45.4464 -45.4020  13.6474  15.2112  15.6302  16.0352
    17.3209  19.4689  24.8489  34.3551  38.3494

     occupation numbers 
     1.0000   1.0000   1.0000   1.0000   1.0000   1.0000   1.0000   1.0000
     0.9426   0.0000   0.0000   0.0000   0.0000

          k = 0.4091 0.3182 0.5000 (   317 PWs)   bands (ev):

   -85.5883 -45.5787 -45.4763 -45.4046  13.0640  15.5447  15.7700  15.9408
    17.3513  17.9437  25.4378  38.2690  40.3629

     occupation numbers 
     1.0000   1.0000   1.0000   1.0000   1.0000   1.0000   1.0000   1.0000
     0.8822   0.0040   0.0000   0.0000   0.0000

          k =-0.0455-1.0455 0.0455 (   314 PWs)   bands (ev):

   -85.5749 -45.5182 -45.5171 -45.4085  13.3502  13.8405  17.4212  17.5661
    17.7183  20.0127  27.3163  31.7484  32.4002

     occupation numbers 
     1.0000   1.0000   1.0000   1.0000   1.0000   1.0000   0.7104   0.3277
     0.0854   0.0000   0.0000   0.0000   0.0000

          k =-0.1364-0.9545-0.0455 (   316 PWs)   bands (ev):

   -85.5758 -45.5370 -45.5205 -45.4596  13.4416  13.9121  17.0535  17.3363
    17.7018  20.6485  27.3280  30.5302  32.1102

     occupation numbers 
     1.0000   1.0000   1.0000   1.0000   1.0000   1.0000   1.0623   0.9132
     0.1016   0.0000   0.0000   0.0000   0.0000

          k =-0.2273-0.8636-0.1364 (   315 PWs)   bands (ev):

   -85.5770 -45.5234 -45.4813 -45.4533  13.7256  14.1709  16.2017  17.0314
    17.5769  20.9706  27.6030  29.1387  33.2492

     occupation numbers 
     1.0000   1.0000   1.0000   1.0000   1.0000   1.0000   1.0000   1.0547
     0.3033   0.0000   0.0000   0.0000   0.0000

          k =-0.3182-0.7727-0.2273 (   314 PWs)   bands (ev):

   -85.5796 -45.5145 -45.4554 -45.4342  13.9883  14.5636  15.5417  16.5552
    17.5153  20.7069  25.4228  31.8184  35.0357

     occupation numbers 
     1.0000   1.0000   1.0000   1.0000   1.0000   1.0000   1.0000   1.0001
     0.4534   0.0000   0.0000   0.0000   0.0000

          k =-0.4091-0.6818-0.3182 (   313 PWs)   bands (ev):

   -85.5821 -45.5273 -45.4557 -45.3632  13.6958  15.1117  15.7588  16.0565
    17.4737  19.8274  24.1355  35.1672  37.2503

     occupation numbers 
     1.0000   1.0000   1.0000   1.0000   1.0000   1.0000   1.0000   1.0000
     0.5661   0.0000   0.0000   0.0000   0.0000

          k =-0.5000-0.5909-0.4091 (   318 PWs)   bands (ev):

   -85.5857 -45.5389 -45.4880 -45.4632  13.2965  15.5180  15.7115  16.3883
    17.4533  18.5303  23.7030  38.3202  39.9793

     occupation numbers 
     1.0000   1.0000   1.0000   1.0000   1.0000   1.0000   1.0000   1.0000
     0.6226   0.0000   0.0000   0.0000   0.0000

          k =-0.0455-0.8636 0.0455 (   322 PWs)   bands (ev):

   -85.5800 -45.6403 -45.5539 -45.5529  13.2820  13.9006  17.3363  17.3500
    17.5395  19.0883  28.5043  32.0683  32.7267

     occupation numbers 
     1.0000   1.0000   1.0000   1.0000   1.0000   1.0000   0.9132   0.8849
     0.3912   0.0000   0.0000   0.0000   0.0000

          k =-0.1364-0.7727-0.0455 (   320 PWs)   bands (ev):

   -85.5828 -45.6304 -45.5528 -45.4884  13.3475  14.0951  16.5333  17.1620
    17.4101  18.6582  30.4959  31.4410  33.0139

     occupation numbers 
     1.0000   1.0000   1.0000   1.0000   1.0000   1.0000   1.0000   1.0829
     0.7399   0.0000   0.0000   0.0000   0.0000

          k =-0.2273-0.6818-0.1364 (   319 PWs)   bands (ev):

   -85.5858 -45.6275 -45.5087 -45.4610  13.4448  14.4419  15.6575  16.6505
    17.4203  18.5746  28.9194  33.3586  34.6580

     occupation numbers 
     1.0000   1.0000   1.0000   1.0000   1.0000   1.0000   1.0000   1.0005
     0.7128   0.0000   0.0000   0.0000   0.0000

          k =-0.3182-0.5909-0.2273 (   317 PWs)   bands (ev):

   -85.5878 -45.5982 -45.4634 -45.4350  13.2951  14.9856  15.4975  16.1430
    17.4358  18.3279  26.9037  36.0448  37.1952

     occupation numbers 
     1.0000   1.0000   1.0000   1.0000   1.0000   1.0000   1.0000   1.0000
     0.6708   0.0000   0.0000   0.0000   0.0000

          k =-0.0455-0.6818 0.0455 (   319 PWs)   bands (ev):

   -85.5880 -45.6381 -45.5121 -45.4848  12.9633  14.2195  16.5175  17.0503
    17.3060  17.3180  32.6831  33.5624  34.2685

     occupation numbers 
     1.0000   1.0000   1.0000   1.0000   1.0000   1.0000   1.0000   1.0612
     0.9685   0.9479   0.0000   0.0000   0.0000

          k =-0.1364-0.5909-0.0455 (   316 PWs)   bands (ev):

   -85.5919 -45.6012 -45.4757 -45.4176  12.5649  14.4966  15.8947  16.7632
    17.0282  17.4117  32.9476  34.5993  35.7480

     occupation numbers 
     1.0000   1.0000   1.0000   1.0000   1.0000   1.0000   1.0000   1.0030
     1.0536   0.7357   0.0000   0.0000   0.0000

          k =-0.2273-0.5000-0.1364 (   316 PWs)   bands (ev):

   -85.5952 -45.5388 -45.4793 -45.4348  12.2241  14.8361  15.7039  16.2117
    17.0451  17.4334  30.8164  36.4081  38.6461

     occupation numbers 
     1.0000   1.0000   1.0000   1.0000   1.0000   1.0000   1.0000   1.0000
     1.0595   0.6774   0.0000   0.0000   0.0000

          k =-0.0455-0.5000 0.0455 (   310 PWs)   bands (ev):

   -85.5972 -45.4435 -45.4349 -45.3866  11.6252  14.7217  16.0511  16.5616
    16.6993  17.1496  35.5969  36.7386  37.5652

     occupation numbers 
     1.0000   1.0000   1.0000   1.0000   1.0000   1.0000   1.0000   1.0001
     1.0011   1.0833   0.0000   0.0000   0.0000

          k =-0.1364-0.4091-0.0455 (   313 PWs)   bands (ev):

   -85.6030 -45.5183 -45.4587 -45.3491  10.9515  14.9694  15.9764  16.2463
    16.5441  17.0864  35.1912  37.1406  40.3507

     occupation numbers 
     1.0000   1.0000   1.0000   1.0000   1.0000   1.0000   1.0000   1.0000
     1.0001   1.0727   0.0000   0.0000   0.0000

          k =-0.0455-0.3182 0.0455 (   314 PWs)   bands (ev):

   -85.6103 -45.5024 -45.4264 -45.3983  10.0189  15.2108  16.0256  16.0666
    16.3978  16.8997  38.0345  39.8269  40.1683

     occupation numbers 
     1.0000   1.0000   1.0000   1.0000   1.0000   1.0000   1.0000   1.0000
     1.0000   1.0174   0.0000   0.0000   0.0000

          k =-0.1364 0.1364 0.1364 (   320 PWs)   bands (ev):

   -85.6174 -45.5332 -45.5332 -45.4553   9.4048  15.4680  15.7364  15.7364
    16.6833  16.6833  37.6305  42.1242  43.7109

     occupation numbers 
     1.0000   1.0000   1.0000   1.0000   1.0000   1.0000   1.0000   1.0000
     1.0008   1.0008   0.0000   0.0000   0.0000

          k =-0.2273 0.2273 0.0455 (   317 PWs)   bands (ev):

   -85.6119 -45.5207 -45.4924 -45.4361  10.0111  15.3401  15.8585  15.8602
    16.5351  16.8715  36.2748  38.4099  44.1370

     occupation numbers 
     1.0000   1.0000   1.0000   1.0000   1.0000   1.0000   1.0000   1.0000
     1.0000   1.0126   0.0000   0.0000   0.0000

          k =-0.3182 0.3182-0.0455 (   316 PWs)   bands (ev):

   -85.6032 -45.5361 -45.4700 -45.4279  11.1268  15.1234  15.7864  16.0764
    16.4696  17.2799  33.5069  35.6298  44.1642

     occupation numbers 
     1.0000   1.0000   1.0000   1.0000   1.0000   1.0000   1.0000   1.0000
     1.0000   1.0070   0.0000   0.0000   0.0000

          k =-0.4091 0.4091-0.1364 (   315 PWs)   bands (ev):

   -85.5936 -45.5429 -45.4613 -45.4056  12.4792  15.1207  15.6149  16.0306
    16.8456  17.7795  29.2959  35.1271  42.2323

     occupation numbers 
     1.0000   1.0000   1.0000   1.0000   1.0000   1.0000   1.0000   1.0000
     1.0092   0.0422   0.0000   0.0000   0.0000

          k = 0.5000-0.5000 0.7727 (   314 PWs)   bands (ev):

   -85.5859 -45.5438 -45.4162 -45.4107  13.3580  15.4140  15.6138  15.9322
    17.2330  18.6840  25.6662  35.2145  40.8224

     occupation numbers 
     1.0000   1.0000   1.0000   1.0000   1.0000   1.0000   1.0000   1.0000
     1.0552   0.0000   0.0000   0.0000   0.0000

          k = 0.4091-0.4091 0.6818 (   317 PWs)   bands (ev):

   -85.5840 -45.5651 -45.4770 -45.4320  13.5454  15.2888  15.9032  15.9406
    17.4060  19.5241  23.7459  35.8442  39.2016

     occupation numbers 
     1.0000   1.0000   1.0000   1.0000   1.0000   1.0000   1.0000   1.0000
     0.7506   0.0000   0.0000   0.0000   0.0000

          k = 0.3182-0.3182 0.5909 (   315 PWs)   bands (ev):

   -85.5861 -45.5457 -45.4940 -45.3751  13.3298  15.2444  15.6617  15.9596
    17.5095  18.5005  25.6574  36.9365  38.3074

     occupation numbers 
     1.0000   1.0000   1.0000   1.0000   1.0000   1.0000   1.0000   1.0000
     0.4687   0.0000   0.0000   0.0000   0.0000

          k = 0.2273-0.2273 0.5000 (   317 PWs)   bands (ev):

   -85.5940 -45.5544 -45.4872 -45.4366  12.4522  14.9674  15.6745  16.0433
    17.3355  17.3616  29.2608  38.1540  38.2341

     occupation numbers 
     1.0000   1.0000   1.0000   1.0000   1.0000   1.0000   1.0000   1.0000
     0.9149   0.8593   0.0000   0.0000   0.0000

          k = 0.1364-0.1364 0.4091 (   312 PWs)   bands (ev):

   -85.6014 -45.5222 -45.4267 -45.3371  11.1252  15.0067  15.9201  16.1480
    16.7287  17.1081  33.5363  38.6987  39.3624

     occupation numbers 
     1.0000   1.0000   1.0000   1.0000   1.0000   1.0000   1.0000   1.0000
     1.0017   1.0782   0.0000   0.0000   0.0000

          k =-0.1364 0.3182 0.1364 (   315 PWs)   bands (ev):

   -85.6082 -45.4898 -45.4651 -45.4293  10.3958  15.2010  15.9042  15.9690
    16.5809  16.9562  34.7994  40.2924  40.4231

     occupation numbers 
     1.0000   1.0000   1.0000   1.0000   1.0000   1.0000   1.0000   1.0000
     1.0001   1.0306   0.0000   0.0000   0.0000

          k =-0.2273 0.4091 0.0455 (   312 PWs)   bands (ev):

   -85.6004 -45.4961 -45.4548 -45.3448  11.3091  14.9992  15.8386  16.2482
    16.5956  17.2678  33.6483  35.7193  41.3581

     occupation numbers 
     1.0000   1.0000   1.0000   1.0000   1.0000   1.0000   1.0000   1.0000
     1.0002   1.0221   0.0000   0.0000   0.0000

          k =-0.3182 0.5000-0.0455 (   316 PWs)   bands (ev):

   -85.5936 -45.5529 -45.4966 -45.4151  12.5381  14.8577  15.5446  16.4066
    16.6959  17.8290  31.0819  33.2492  39.2770

     occupation numbers 
     1.0000   1.0000   1.0000   1.0000   1.0000   1.0000   1.0000   1.0000
     1.0010   0.0223   0.0000   0.0000   0.0000

          k = 0.5909-0.4091 0.8636 (   318 PWs)   bands (ev):

   -85.5866 -45.5791 -45.4863 -45.4662  13.5687  14.9604  15.2850  16.2440
    17.1272  18.9176  27.1824  33.1307  37.3193

     occupation numbers 
     1.0000   1.0000   1.0000   1.0000   1.0000   1.0000   1.0000   1.0000
     1.0816   0.0000   0.0000   0.0000   0.0000

          k = 0.5000-0.3182 0.7727 (   310 PWs)   bands (ev):

   -85.5798 -45.4742 -45.3994 -45.3693  13.9220  14.9768  15.5928  16.2023
    17.4149  20.5381  24.2743  33.6157  35.8668

     occupation numbers 
     1.0000   1.0000   1.0000   1.0000   1.0000   1.0000   1.0000   1.0000
     0.7273   0.0000   0.0000   0.0000   0.0000

          k = 0.4091-0.2273 0.6818 (   315 PWs)   bands (ev):

   -85.5822 -45.5445 -45.4668 -45.4126  13.8334  14.9263  15.4877  16.2382
    17.4235  19.9069  25.0262  34.2278  35.4046

     occupation numbers 
     1.0000   1.0000   1.0000   1.0000   1.0000   1.0000   1.0000   1.0000
     0.7042   0.0000   0.0000   0.0000   0.0000

          k = 0.3182-0.1364 0.5909 (   318 PWs)   bands (ev):

   -85.5889 -45.6150 -45.4828 -45.4455  13.2552  14.7952  15.4063  16.3511
    17.1707  18.3233  28.4128  34.1925  36.7194

     occupation numbers 
     1.0000   1.0000   1.0000   1.0000   1.0000   1.0000   1.0000   1.0000
     1.0819   0.0000   0.0000   0.0000   0.0000

          k = 0.2273-0.0455 0.5000 (   316 PWs)   bands (ev):

   -85.5961 -45.5302 -45.4895 -45.4416  12.0991  14.7816  15.6827  16.4347
    16.7525  17.4888  32.4973  34.5304  38.7146

     occupation numbers 
     1.0000   1.0000   1.0000   1.0000   1.0000   1.0000   1.0000   1.0000
     1.0025   0.5245   0.0000   0.0000   0.0000

          k =-0.1364 0.5000 0.1364 (   316 PWs)   bands (ev):

   -85.5970 -45.5395 -45.4673 -45.4499  11.9352  14.7595  15.7899  16.3341
    16.9704  17.2356  32.3664  37.2243  37.8061

     occupation numbers 
     1.0000   1.0000   1.0000   1.0000   1.0000   1.0000   1.0000   1.0000
     1.0347   1.0533   0.0000   0.0000   0.0000

          k =-0.2273 0.5909 0.0455 (   314 PWs)   bands (ev):

   -85.5898 -45.5569 -45.4422 -45.4148  12.8544  14.5823  15.6105  16.7255
    17.0241  17.8674  31.4674  33.4604  36.0985

     occupation numbers 
     1.0000   1.0000   1.0000   1.0000   1.0000   1.0000   1.0000   1.0016
     1.0522   0.0130   0.0000   0.0000   0.0000

          k = 0.6818-0.3182 0.9545 (   318 PWs)   bands (ev):

   -85.5843 -45.6206 -45.4945 -45.4343  13.7086  14.5430  15.3267  16.7993
    17.1794  19.1037  29.1822  31.4246  33.9906

     occupation numbers 
     1.0000   1.0000   1.0000   1.0000   1.0000   1.0000   1.0000   1.0050
     1.0804   0.0000   0.0000   0.0000   0.0000

          k = 0.5909-0.2273 0.8636 (   316 PWs)   bands (ev):

   -85.5790 -45.5267 -45.4830 -45.4499  14.2127  14.5988  15.2502  16.5890
    17.4307  21.2057  25.6870  31.5056  32.5555

     occupation numbers 
     1.0000   1.0000   1.0000   1.0000   1.0000   1.0000   1.0000   1.0001
     0.6849   0.0000   0.0000   0.0000   0.0000

          k = 0.5000-0.1364 0.7727 (   313 PWs)   bands (ev):

   -85.5777 -45.5056 -45.4650 -45.3891  14.4088  14.5734  15.2459  16.5271
    17.4260  22.0005  24.7459  30.8840  33.0385

     occupation numbers 
     1.0000   1.0000   1.0000   1.0000   1.0000   1.0000   1.0000   1.0000
     0.6975   0.0000   0.0000   0.0000   0.0000

          k = 0.4091-0.0455 0.6818 (   316 PWs)   bands (ev):

   -85.5819 -45.5301 -45.4963 -45.4368  14.0641  14.7484  15.0404  16.6255
    17.1545  19.9193  27.8812  30.4520  34.5520

     occupation numbers 
     1.0000   1.0000   1.0000   1.0000   1.0000   1.0000   1.0000   1.0003
     1.0833   0.0000   0.0000   0.0000   0.0000

          k = 0.3182 0.0455 0.5909 (   316 PWs)   bands (ev):

   -85.5886 -45.5839 -45.4681 -45.4297  13.2291  14.6942  15.3569  16.6207
    16.9603  18.3391  30.0597  32.2769  36.5627

     occupation numbers 
     1.0000   1.0000   1.0000   1.0000   1.0000   1.0000   1.0000   1.0003
     1.0318   0.0000   0.0000   0.0000   0.0000

          k =-0.1364 0.6818 0.1364 (   316 PWs)   bands (ev):

   -85.5857 -45.6308 -45.4906 -45.3862  13.2299  14.3377  15.9852  16.8039
    17.4364  18.1120  30.4251  33.1678  34.8227

     occupation numbers 
     1.0000   1.0000   1.0000   1.0000   1.0000   1.0000   1.0000   1.0053
     0.6692   0.0002   0.0000   0.0000   0.0000

          k = 0.7727-0.2273 1.0455 (   320 PWs)   bands (ev):

   -85.5819 -45.6179 -45.5508 -45.4753  13.5827  14.2167  16.0104  17.0644
    17.3623  19.3941  29.8015  30.8647  32.1885

     occupation numbers 
     1.0000   1.0000   1.0000   1.0000   1.0000   1.0000   1.0000   1.0659
     0.8577   0.0000   0.0000   0.0000   0.0000

          k = 0.6818-0.1364 0.9545 (   316 PWs)   bands (ev):

   -85.5767 -45.5409 -45.5128 -45.4206  13.9079  14.3293  15.7682  16.9969
    17.5409  21.5385  27.9173  29.1347  30.7022

     occupation numbers 
     1.0000   1.0000   1.0000   1.0000   1.0000   1.0000   1.0000   1.0430
     0.3877   0.0000   0.0000   0.0000   0.0000

          k = 0.5909-0.0455 0.8636 (   315 PWs)   bands (ev):

   -85.5754 -45.5098 -45.5043 -45.4117  14.1758  14.5520  15.3793  16.7795
    17.6029  24.0096  24.8231  28.2654  31.3810

     occupation numbers 
     1.0000   1.0000   1.0000   1.0000   1.0000   1.0000   1.0000   1.0038
     0.2493   0.0000   0.0000   0.0000   0.0000

          k = 0.5000 0.0455 0.7727 (   316 PWs)   bands (ev):

   -85.5779 -45.5174 -45.4887 -45.4548  14.4050  14.6689  15.0110  16.6514
    17.3868  22.0526  25.9179  29.1195  32.8156

     occupation numbers 
     1.0000   1.0000   1.0000   1.0000   1.0000   1.0000   1.0000   1.0005
     0.7995   0.0000   0.0000   0.0000   0.0000

          k = 0.4091 0.1364 0.6818 (   317 PWs)   bands (ev):

[...]

          k =-0.1364-0.9545 0.1364 (   314 PWs)   bands (ev):

   -85.5751 -45.5321 -45.4908 -45.4206  13.5481  13.9868  16.7905  17.2391
    17.7023  21.1592  27.3304  29.0789  33.0358

     occupation numbers 
     1.0000   1.0000   1.0000   1.0000   1.0000   1.0000   1.0044   1.0505
     0.1011   0.0000   0.0000   0.0000   0.0000

          k =-0.2273-0.8636 0.0455 (   316 PWs)   bands (ev):

   -85.5773 -45.5483 -45.4882 -45.4646  13.6312  14.1196  16.3164  17.1625
    17.5696  20.6341  28.6800  29.5273  31.5696

     occupation numbers 
     1.0000   1.0000   1.0000   1.0000   1.0000   1.0000   1.0000   1.0829
     0.3197   0.0000   0.0000   0.0000   0.0000

          k =-0.3182-0.7727-0.0455 (   315 PWs)   bands (ev):

   -85.5793 -45.5394 -45.4827 -45.4205  13.9052  14.4255  15.5208  16.9501
    17.3731  20.2798  28.4663  30.5894  31.7878

     occupation numbers 
     1.0000   1.0000   1.0000   1.0000   1.0000   1.0000   1.0000   1.0289
     0.8328   0.0000   0.0000   0.0000   0.0000

          k =-0.1364-0.7727 0.1364 (   318 PWs)   bands (ev):

   -85.5817 -45.6171 -45.5058 -45.4603  13.4651  14.1572  16.3025  17.0063
    17.5170  19.0502  29.6271  30.9123  33.9531

     occupation numbers 
     1.0000   1.0000   1.0000   1.0000   1.0000   1.0000   1.0000   1.0461
     0.4490   0.0000   0.0000   0.0000   0.0000

          k =-0.2273-0.6818 0.0455 (   320 PWs)   bands (ev):

   -85.5864 -45.6429 -45.5337 -45.4611  13.3599  14.3782  15.7174  16.8878
    17.1808  18.4504  30.5652  32.4168  33.6727

     occupation numbers 
     1.0000   1.0000   1.0000   1.0000   1.0000   1.0000   1.0000   1.0152
     1.0801   0.0000   0.0000   0.0000   0.0000

          k =-0.1364-0.5909 0.1364 (   320 PWs)   bands (ev):

   -85.5927 -45.6237 -45.5046 -45.5015  12.6895  14.5281  15.7598  16.5309
    17.3103  17.3926  31.3199  35.5690  35.9198

     occupation numbers 
     1.0000   1.0000   1.0000   1.0000   1.0000   1.0000   1.0000   1.0000
     0.9613   0.7850   0.0000   0.0000   0.0000

          k =-0.2273 0.2273 0.2273 (   311 PWs)   bands (ev):

   -85.6058 -45.4407 -45.4039 -45.4039  10.5831  15.2938  15.8921  15.8921
    16.8575  16.8575  33.1058  41.4567  42.8734

     occupation numbers 
     1.0000   1.0000   1.0000   1.0000   1.0000   1.0000   1.0000   1.0000
     1.0107   1.0107   0.0000   0.0000   0.0000

          k =-0.3182 0.3182 0.1364 (   312 PWs)   bands (ev):

   -85.6008 -45.4673 -45.4128 -45.4103  11.2923  15.1699  15.8257  15.9749
    16.7105  17.2685  31.8386  37.5784  43.1434

     occupation numbers 
     1.0000   1.0000   1.0000   1.0000   1.0000   1.0000   1.0000   1.0000
     1.0013   1.0212   0.0000   0.0000   0.0000

          k =-0.4091 0.4091 0.0455 (   317 PWs)   bands (ev):

   -85.5949 -45.5484 -45.5174 -45.4167  12.4066  15.0027  15.5670  16.2507
    16.5565  17.8255  30.9434  33.1492  42.5613

     occupation numbers 
     1.0000   1.0000   1.0000   1.0000   1.0000   1.0000   1.0000   1.0000
     1.0001   0.0234   0.0000   0.0000   0.0000

          k = 0.5000-0.5000 0.9545 (   313 PWs)   bands (ev):

   -85.5859 -45.5491 -45.4457 -45.3567  13.5557  15.0118  15.2538  16.3546
    16.8520  18.8690  28.6294  31.1136  40.3255

     occupation numbers 
     1.0000   1.0000   1.0000   1.0000   1.0000   1.0000   1.0000   1.0000
     1.0100   0.0000   0.0000   0.0000   0.0000

          k = 0.4091-0.4091 0.8636 (   315 PWs)   bands (ev):

   -85.5810 -45.5395 -45.4367 -45.4265  14.0394  14.8791  15.3810  16.2984
    17.2436  20.5114  25.1885  31.3663  38.1656

     occupation numbers 
     1.0000   1.0000   1.0000   1.0000   1.0000   1.0000   1.0000   1.0000
     1.0467   0.0000   0.0000   0.0000   0.0000

          k = 0.3182-0.3182 0.7727 (   313 PWs)   bands (ev):

   -85.5797 -45.5010 -45.4510 -45.4130  14.0050  14.7449  15.5486  16.3817
    17.4810  20.9199  24.4009  32.2821  36.6443

     occupation numbers 
     1.0000   1.0000   1.0000   1.0000   1.0000   1.0000   1.0000   1.0000
     0.5460   0.0000   0.0000   0.0000   0.0000

          k = 0.2273-0.2273 0.6818 (   318 PWs)   bands (ev):

   -85.5850 -45.6231 -45.4842 -45.4509  13.5804  14.5820  15.5675  16.4586
    17.5043  18.8878  27.4050  33.7254  35.8789

     occupation numbers 
     1.0000   1.0000   1.0000   1.0000   1.0000   1.0000   1.0000   1.0000
     0.4825   0.0000   0.0000   0.0000   0.0000

          k =-0.2273 0.4091 0.2273 (   316 PWs)   bands (ev):

   -85.5985 -45.5159 -45.4642 -45.4414  11.7434  15.1068  15.7561  15.9263
    17.0085  17.2215  30.4061  39.5935  39.6369

     occupation numbers 
     1.0000   1.0000   1.0000   1.0000   1.0000   1.0000   1.0000   1.0000
     1.0469   1.0632   0.0000   0.0000   0.0000

          k =-0.3182 0.5000 0.1364 (   315 PWs)   bands (ev):

   -85.5926 -45.5615 -45.4588 -45.4011  12.6224  14.9554  15.5772  16.1819
    16.9905  17.7860  29.4144  35.2064  39.3344

     occupation numbers 
     1.0000   1.0000   1.0000   1.0000   1.0000   1.0000   1.0000   1.0000
     1.0409   0.0390   0.0000   0.0000   0.0000

          k = 0.5909-0.4091 1.0455 (   317 PWs)   bands (ev):

   -85.5864 -45.5746 -45.4971 -45.4303  13.6269  14.8495  15.1706  16.4751
    16.9448  18.9241  28.7604  31.2008  37.1736

     occupation numbers 
     1.0000   1.0000   1.0000   1.0000   1.0000   1.0000   1.0000   1.0000
     1.0275   0.0000   0.0000   0.0000   0.0000

          k = 0.5000-0.3182 0.9545 (   319 PWs)   bands (ev):

   -85.5812 -45.5695 -45.5371 -45.4477  14.2868  14.7269  15.0233  16.5219
    17.1509  20.7283  26.6515  29.6220  35.2582

     occupation numbers 
     1.0000   1.0000   1.0000   1.0000   1.0000   1.0000   1.0000   1.0000
     1.0833   0.0000   0.0000   0.0000   0.0000

          k = 0.4091-0.2273 0.8636 (   313 PWs)   bands (ev):

   -85.5771 -45.5119 -45.4492 -45.3973  14.3361  14.5405  15.3765  16.5935
    17.4339  22.4711  24.3103  30.2278  33.8202

     occupation numbers 
     1.0000   1.0000   1.0000   1.0000   1.0000   1.0000   1.0000   1.0002
     0.6762   0.0000   0.0000   0.0000   0.0000

          k = 0.3182-0.1364 0.7727 (   316 PWs)   bands (ev):

   -85.5796 -45.5300 -45.5105 -45.4298  13.9378  14.4678  15.5354  16.7185
    17.4707  20.4323  26.8730  31.4343  33.0259

     occupation numbers 
     1.0000   1.0000   1.0000   1.0000   1.0000   1.0000   1.0000   1.0015
     0.5744   0.0000   0.0000   0.0000   0.0000

          k =-0.2273 0.5909 0.2273 (   316 PWs)   bands (ev):

   -85.5890 -45.5832 -45.4466 -45.4456  13.1109  14.7871  15.5467  16.2559
    17.4861  17.9751  28.2678  36.1181  36.9137

     occupation numbers 
     1.0000   1.0000   1.0000   1.0000   1.0000   1.0000   1.0000   1.0000
     0.5321   0.0023   0.0000   0.0000   0.0000

          k = 0.6818-0.3182 1.1364 (   316 PWs)   bands (ev):

   -85.5835 -45.5666 -45.4880 -45.4207  13.7202  14.6247  15.3917  16.5650
    17.3874  19.2005  27.5741  33.1779  34.3452

     occupation numbers 
     1.0000   1.0000   1.0000   1.0000   1.0000   1.0000   1.0000   1.0001
     0.7981   0.0000   0.0000   0.0000   0.0000

          k = 0.5909-0.2273 1.0455 (   315 PWs)   bands (ev):

   -85.5785 -45.5050 -45.4984 -45.4309  14.2070  14.6685  15.1026  16.7580
    17.3814  21.1171  27.1649  29.8354  32.1534

     occupation numbers 
     1.0000   1.0000   1.0000   1.0000   1.0000   1.0000   1.0000   1.0027
     0.8128   0.0000   0.0000   0.0000   0.0000

          k = 0.5000-0.1364 0.9545 (   315 PWs)   bands (ev):

   -85.5759 -45.5087 -45.4832 -45.4409  14.2756  14.8068  15.0089  16.7062
    17.5912  23.5436  25.3843  28.7005  30.6588

     occupation numbers 
     1.0000   1.0000   1.0000   1.0000   1.0000   1.0000   1.0000   1.0012
     0.2729   0.0000   0.0000   0.0000   0.0000

          k = 0.4091-0.0455 0.8636 (   313 PWs)   bands (ev):

   -85.5754 -45.5165 -45.4601 -45.3817  14.1677  14.6207  15.2985  16.8106
    17.5799  22.5565  26.6323  29.1159  30.2991

     occupation numbers 
     1.0000   1.0000   1.0000   1.0000   1.0000   1.0000   1.0000   1.0058
     0.2968   0.0000   0.0000   0.0000   0.0000

          k =-0.2273-1.2273 0.2273 (   315 PWs)   bands (ev):

   -85.5800 -45.5290 -45.4825 -45.4371  13.8272  14.4148  15.7375  16.6833
    17.5387  20.1611  26.7012  31.4025  35.0773

     occupation numbers 
     1.0000   1.0000   1.0000   1.0000   1.0000   1.0000   1.0000   1.0008
     0.3932   0.0000   0.0000   0.0000   0.0000

          k =-0.3182-1.1364 0.1364 (   313 PWs)   bands (ev):

   -85.5761 -45.5107 -45.4955 -45.3626  13.9850  14.3699  15.7654  16.9083
    17.5296  21.7910  26.3379  29.4176  32.4889

     occupation numbers 
     1.0000   1.0000   1.0000   1.0000   1.0000   1.0000   1.0000   1.0191
     0.4162   0.0000   0.0000   0.0000   0.0000

          k =-0.4091-1.0455 0.0455 (   316 PWs)   bands (ev):

   -85.5753 -45.5238 -45.5128 -45.4325  14.0835  14.5914  15.3909  16.7961
    17.6820  23.8031  26.3058  27.9020  29.6746

     occupation numbers 
     1.0000   1.0000   1.0000   1.0000   1.0000   1.0000   1.0000   1.0048
     0.1240   0.0000   0.0000   0.0000   0.0000

          k =-0.5000-0.9545-0.0455 (   314 PWs)   bands (ev):

   -85.5747 -45.5347 -45.4543 -45.4126  14.1808  14.9566  14.9723  16.7221
    17.7132  24.8838  25.1914  28.0076  29.3842

     occupation numbers 
     1.0000   1.0000   1.0000   1.0000   1.0000   1.0000   1.0000   1.0016
     0.0902   0.0000   0.0000   0.0000   0.0000

          k =-0.2273-1.0455 0.2273 (   317 PWs)   bands (ev):

   -85.5761 -45.5567 -45.5050 -45.4377  13.8688  14.2214  16.0822  16.9888
    17.4770  22.6893  25.7290  27.9346  34.2356

     occupation numbers 
     1.0000   1.0000   1.0000   1.0000   1.0000   1.0000   1.0000   1.0404
     0.5571   0.0000   0.0000   0.0000   0.0000

          k =-0.3182-0.9545 0.1364 (   313 PWs)   bands (ev):

   -85.5745 -45.5064 -45.4821 -45.3729  13.9630  14.3326  15.8735  16.9784
    17.5889  22.9857  25.9281  27.9963  32.2385

     occupation numbers 
     1.0000   1.0000   1.0000   1.0000   1.0000   1.0000   1.0000   1.0371
     0.2776   0.0000   0.0000   0.0000   0.0000

          k =-0.2273-0.8636 0.2273 (   313 PWs)   bands (ev):

   -85.5764 -45.4891 -45.4750 -45.4098  13.9022  14.2998  15.9646  16.8827
    17.5444  21.5300  26.1554  29.3444  34.5251

     occupation numbers 
     1.0000   1.0000   1.0000   1.0000   1.0000   1.0000   1.0000   1.0144
     0.3791   0.0000   0.0000   0.0000   0.0000

          k =-0.3182 0.3182 0.3182 (   308 PWs)   bands (ev):

   -85.5945 -45.4096 -45.3666 -45.3666  11.9854  15.3915  15.8204  15.8204
    17.2310  17.2310  28.8680  40.6046  42.3647

     occupation numbers 
     1.0000   1.0000   1.0000   1.0000   1.0000   1.0000   1.0000   1.0000
     1.0567   1.0567   0.0000   0.0000   0.0000

          k =-0.4091 0.4091 0.2273 (   315 PWs)   bands (ev):

   -85.5924 -45.5646 -45.4413 -45.3939  12.6060  15.3565  15.6673  15.8666
    17.0990  17.6636  27.7445  37.2501  41.7385

     occupation numbers 
     1.0000   1.0000   1.0000   1.0000   1.0000   1.0000   1.0000   1.0000
     1.0761   0.1478   0.0000   0.0000   0.0000

          k = 0.5000-0.5000 1.1364 (   316 PWs)   bands (ev):

   -85.5868 -45.5422 -45.4918 -45.4177  13.4667  15.1538  15.3419  16.1215
    17.0155  18.8288  27.0678  33.0348  40.4927

     occupation numbers 
     1.0000   1.0000   1.0000   1.0000   1.0000   1.0000   1.0000   1.0000
     1.0492   0.0000   0.0000   0.0000   0.0000

          k = 0.4091-0.4091 1.0455 (   313 PWs)   bands (ev):

   -85.5797 -45.5038 -45.4248 -45.4014  14.2263  14.7987  15.1853  16.4749
    17.0990  20.6562  26.4920  29.5622  37.9630

     occupation numbers 
     1.0000   1.0000   1.0000   1.0000   1.0000   1.0000   1.0000   1.0000
     1.0761   0.0000   0.0000   0.0000   0.0000

          k = 0.3182-0.3182 0.9545 (   315 PWs)   bands (ev):

   -85.5770 -45.5325 -45.4519 -45.4316  14.2749  14.4536  15.4947  16.7383
    17.3040  22.8621  24.6047  28.4954  35.9159

     occupation numbers 
     1.0000   1.0000   1.0000   1.0000   1.0000   1.0000   1.0000   1.0020
     0.9717   0.0000   0.0000   0.0000   0.0000

          k =-0.3182 0.5000 0.3182 (   315 PWs)   bands (ev):

   -85.5895 -45.5849 -45.4382 -45.3674  12.9075  15.4833  15.6754  15.8790
    17.4260  17.6735  26.5343  38.8103  39.4698

     occupation numbers 
     1.0000   1.0000   1.0000   1.0000   1.0000   1.0000   1.0000   1.0000
     0.6974   0.1347   0.0000   0.0000   0.0000

          k = 0.5909-0.4091 1.2273 (   315 PWs)   bands (ev):

   -85.5854 -45.5587 -45.4466 -45.4119  13.4776  15.1985  15.5267  16.0584
    17.3450  18.8465  25.7715  35.2576  37.6590

     occupation numbers 
     1.0000   1.0000   1.0000   1.0000   1.0000   1.0000   1.0000   1.0000
     0.8955   0.0000   0.0000   0.0000   0.0000

          k = 0.5000-0.3182 1.1364 (   313 PWs)   bands (ev):

   -85.5799 -45.4865 -45.4383 -45.4257  14.1404  14.7919  15.3036  16.3936
    17.3107  20.7258  25.3273  31.4700  35.4557

     occupation numbers 
     1.0000   1.0000   1.0000   1.0000   1.0000   1.0000   1.0000   1.0000
     0.9607   0.0000   0.0000   0.0000   0.0000

          k = 0.4091-0.2273 1.0455 (   310 PWs)   bands (ev):

   -85.5749 -45.4870 -45.4022 -45.3490  14.3574  14.5193  15.3766  16.7618
    17.4603  23.0692  24.8215  28.5730  33.6149

     occupation numbers 
     1.0000   1.0000   1.0000   1.0000   1.0000   1.0000   1.0000   1.0029
     0.6033   0.0000   0.0000   0.0000   0.0000

          k =-0.3182-1.3182 0.3182 (   317 PWs)   bands (ev):

   -85.5836 -45.5466 -45.5005 -45.4478  13.6786  14.9611  15.5835  16.1256
    17.5245  19.6113  24.9110  34.6103  37.3630

     occupation numbers 
     1.0000   1.0000   1.0000   1.0000   1.0000   1.0000   1.0000   1.0000
     0.4293   0.0000   0.0000   0.0000   0.0000

          k =-0.4091-1.2273 0.2273 (   312 PWs)   bands (ev):

   -85.5787 -45.4843 -45.4350 -45.4059  14.1273  14.7166  15.4282  16.4356
    17.4600  21.2431  24.4928  32.3451  34.3032

     occupation numbers 
     1.0000   1.0000   1.0000   1.0000   1.0000   1.0000   1.0000   1.0000
     0.6040   0.0000   0.0000   0.0000   0.0000

          k =-0.5000-1.1364 0.1364 (   316 PWs)   bands (ev):

   -85.5770 -45.5399 -45.4965 -45.4283  14.3650  14.6631  15.1145  16.6352
    17.4875  23.1724  24.5725  30.1469  31.1701

     occupation numbers 
     1.0000   1.0000   1.0000   1.0000   1.0000   1.0000   1.0000   1.0003
     0.5281   0.0000   0.0000   0.0000   0.0000

          k =-0.3182-1.1364 0.3182 (   307 PWs)   bands (ev):

   -85.5755 -45.4171 -45.3964 -45.3251  14.2113  14.5853  15.5517  16.6078
    17.5091  22.2276  24.2395  30.1504  36.1645

     occupation numbers 
     1.0000   1.0000   1.0000   1.0000   1.0000   1.0000   1.0000   1.0002
     0.4698   0.0000   0.0000   0.0000   0.0000

          k =-0.4091 0.4091 0.4091 (   320 PWs)   bands (ev):

   -85.5903 -45.6355 -45.4611 -45.4611  12.9116  15.6790  15.6790  16.2763
    17.3520  17.3520  25.2901  39.9101  42.1464

     occupation numbers 
     1.0000   1.0000   1.0000   1.0000   1.0000   1.0000   1.0000   1.0000
     0.8806   0.8806   0.0000   0.0000   0.0000

          k = 0.5000-0.5000 1.3182 (   317 PWs)   bands (ev):

   -85.5864 -45.5236 -45.4819 -45.4540  13.2615  15.5112  15.7704  16.1007
    17.3322  18.3847  24.5869  37.4058  40.8663

     occupation numbers 
     1.0000   1.0000   1.0000   1.0000   1.0000   1.0000   1.0000   1.0000
     0.9213   0.0000   0.0000   0.0000   0.0000

          k = 0.4091-0.4091 1.2273 (   313 PWs)   bands (ev):

   -85.5814 -45.4655 -45.4483 -45.4251  13.8086  15.0899  15.6665  16.0950
    17.3568  20.2099  24.1992  33.5546  38.5873

     occupation numbers 
     1.0000   1.0000   1.0000   1.0000   1.0000   1.0000   1.0000   1.0000
     0.8700   0.0000   0.0000   0.0000   0.0000

          k =-0.4091-1.4091 0.4091 (   319 PWs)   bands (ev):

   -85.5862 -45.5989 -45.4675 -45.4648  13.3147  15.4738  15.7686  16.2086
    17.4729  18.5559  23.9150  37.9968  40.0173

     occupation numbers 
     1.0000   1.0000   1.0000   1.0000   1.0000   1.0000   1.0000   1.0000
     0.5684   0.0000   0.0000   0.0000   0.0000

          k =-0.5000-1.3182 0.3182 (   312 PWs)   bands (ev):

   -85.5816 -45.4990 -45.4217 -45.3826  13.6752  15.1861  15.8310  15.9963
    17.4432  19.9722  23.8458  35.5306  36.8258

     occupation numbers 
     1.0000   1.0000   1.0000   1.0000   1.0000   1.0000   1.0000   1.0000
     0.6506   0.0000   0.0000   0.0000   0.0000

          k = 0.5000-0.5000-0.5000 (   332 PWs)   bands (ev):

   -85.5908 -45.7484 -45.5970 -45.5970  13.0895  15.5423  15.5423  17.1917
    17.3792  17.3792  23.5578  39.6502  42.1104

     occupation numbers 
     1.0000   1.0000   1.0000   1.0000   1.0000   1.0000   1.0000   1.0771
     0.8182   0.8182   0.0000   0.0000   0.0000

     the Fermi energy is    17.5358 ev

!    total energy              =    -338.87797109 Ry
     Harris-Foulkes estimate   =    -338.87797109 Ry
     estimated scf accuracy    <          2.7E-09 Ry

     The total energy is the sum of the following terms:

     one-electron contribution =    -186.21672497 Ry
     hartree contribution      =     104.32336915 Ry
     xc contribution           =     -33.90360056 Ry
     ewald contribution        =    -223.08083981 Ry
     smearing contrib. (-TS)   =      -0.00017491 Ry

     convergence has been achieved in   6 iterations

     Writing output data file Ni_exc2.save

     init_run     :      2.03s CPU      2.05s WALL (       1 calls)
     electrons    :     20.83s CPU     21.48s WALL (       1 calls)

     Called by init_run:
     wfcinit      :      0.78s CPU      0.79s WALL (       1 calls)
     potinit      :      0.02s CPU      0.02s WALL (       1 calls)

     Called by electrons:
     c_bands      :     18.06s CPU     18.61s WALL (       7 calls)
     sum_band     :      2.52s CPU      2.62s WALL (       7 calls)
     v_of_rho     :      0.09s CPU      0.09s WALL (       7 calls)
     v_h          :      0.00s CPU      0.00s WALL (       7 calls)
     v_xc         :      0.09s CPU      0.09s WALL (       7 calls)
     newd         :      0.20s CPU      0.20s WALL (       7 calls)
     mix_rho      :      0.00s CPU      0.00s WALL (       7 calls)

     Called by c_bands:
     init_us_2    :      0.80s CPU      0.81s WALL (    2190 calls)
     cegterg      :     17.00s CPU     17.53s WALL (    1022 calls)

     Called by sum_band:
     sum_band:bec :      0.04s CPU      0.03s WALL (    1022 calls)
     addusdens    :      0.18s CPU      0.18s WALL (       7 calls)

     Called by *egterg:
     h_psi        :      9.78s CPU     10.15s WALL (    3435 calls)
     s_psi        :      0.96s CPU      0.98s WALL (    3435 calls)
     g_psi        :      0.08s CPU      0.08s WALL (    2267 calls)
     cdiaghg      :      2.65s CPU      2.64s WALL (    3143 calls)
     cegterg:over :      1.73s CPU      1.75s WALL (    2267 calls)
     cegterg:upda :      0.94s CPU      1.00s WALL (    2267 calls)
     cegterg:last :      0.58s CPU      0.60s WALL (    1022 calls)

     Called by h_psi:
     h_psi:vloc   :      7.74s CPU      8.05s WALL (    3435 calls)
     h_psi:vnl    :      2.00s CPU      2.03s WALL (    3435 calls)
     add_vuspsi   :      0.97s CPU      0.98s WALL (    3435 calls)

     General routines
     calbec       :      1.42s CPU      1.43s WALL (    4457 calls)
     fft          :      0.01s CPU      0.01s WALL (      93 calls)
     fftw         :      7.10s CPU      7.50s WALL (   80460 calls)
     davcio       :      0.00s CPU      0.05s WALL (     146 calls)

     Parallel routines
     fft_scatter  :      0.96s CPU      1.02s WALL (   80553 calls)

     PWSCF        :    24.29s CPU        25.16s WALL


   This run was terminated on:  21:57: 0  18Feb2020            

=------------------------------------------------------------------------------=
   JOB DONE.
=------------------------------------------------------------------------------=
