
     Program PWSCF v.5.1 starts on 18Feb2020 at 21:56:13 

     This program is part of the open-source Quantum ESPRESSO suite
     for quantum simulation of materials; please cite
         "P. Giannozzi et al., J. Phys.:Condens. Matter 21 395502 (2009);
          URL http://www.quantum-espresso.org", 
     in publications or presentations arising from this work. More details at
     http://www.quantum-espresso.org/quote

     Parallel version (MPI), running on     1 processors
     Waiting for input...
     Reading input from standard input

     Current dimensions of program PWSCF are:
     Max number of different atomic species (ntypx) = 10
     Max number of k-points (npk) =  40000
     Max angular momentum in pseudopotentials (lmaxx) =  3

     Subspace diagonalization in iterative solution of the eigenvalue problem:
     a serial algorithm will be used


     G-vector sticks info
     --------------------
     sticks:   dense  smooth     PW     G-vecs:    dense   smooth      PW
     Sum         253     253     91                 2565     2565     561



     bravais-lattice index     =            2
     lattice parameter (alat)  =       6.6590  a.u.
     unit-cell volume          =      73.8188 (a.u.)^3
     number of atoms/cell      =            1
     number of atomic types    =            1
     number of electrons       =        18.00
     number of Kohn-Sham states=           13
     kinetic-energy cutoff     =      40.0000  Ry
     charge density cutoff     =     160.0000  Ry
     convergence threshold     =      1.0E-06
     mixing beta               =       0.7000
     number of iterations used =            8  plain     mixing
     Exchange-correlation      = PBESOL ( 1  4 10  8 0)

     celldm(1)=   6.659000  celldm(2)=   0.000000  celldm(3)=   0.000000
     celldm(4)=   0.000000  celldm(5)=   0.000000  celldm(6)=   0.000000

     crystal axes: (cart. coord. in units of alat)
               a(1) = (  -0.500000   0.000000   0.500000 )  
               a(2) = (   0.000000   0.500000   0.500000 )  
               a(3) = (  -0.500000   0.500000   0.000000 )  

     reciprocal axes: (cart. coord. in units 2 pi/alat)
               b(1) = ( -1.000000 -1.000000  1.000000 )  
               b(2) = (  1.000000  1.000000  1.000000 )  
               b(3) = ( -1.000000  1.000000 -1.000000 )  


     PseudoPot. # 1 for Ni read from file:
     ../pseudo/Ni.pbesol-spn-rrkjus_psl.1.0.0.UPF
     MD5 check sum: 6fc0a587bf949a08f2faed986b854013
     Pseudo is Ultrasoft + core correction, Zval = 18.0
     Generated using "atomic" code by A. Dal Corso  v.6.3
     Using radial grid of 1195 points,  6 beta functions with: 
                l(1) =   0
                l(2) =   0
                l(3) =   1
                l(4) =   1
                l(5) =   2
                l(6) =   2
     Q(r) pseudized with 0 coefficients 


     atomic species   valence    mass     pseudopotential
        Ni            18.00    58.69000     Ni( 1.00)

     48 Sym. Ops., with inversion, found


                                    s                        frac. trans.

      isym =  1     identity                                     

 cryst.   s( 1) = (     1          0          0      )
                  (     0          1          0      )
                  (     0          0          1      )

 cart.    s( 1) = (  1.0000000  0.0000000  0.0000000 )
                  (  0.0000000  1.0000000  0.0000000 )
                  (  0.0000000  0.0000000  1.0000000 )


      isym =  2     180 deg rotation - cart. axis [0,0,1]        

 cryst.   s( 2) = (     0          1         -1      )
                  (     1          0         -1      )
                  (     0          0         -1      )

 cart.    s( 2) = ( -1.0000000  0.0000000  0.0000000 )
                  (  0.0000000 -1.0000000  0.0000000 )
                  (  0.0000000  0.0000000  1.0000000 )


      isym =  3     180 deg rotation - cart. axis [0,1,0]        

 cryst.   s( 3) = (    -1          0          0      )
                  (    -1          0          1      )
                  (    -1          1          0      )

 cart.    s( 3) = ( -1.0000000  0.0000000  0.0000000 )
                  (  0.0000000  1.0000000  0.0000000 )
                  (  0.0000000  0.0000000 -1.0000000 )


      isym =  4     180 deg rotation - cart. axis [1,0,0]        

 cryst.   s( 4) = (     0         -1          1      )
                  (     0         -1          0      )
                  (     1         -1          0      )

 cart.    s( 4) = (  1.0000000  0.0000000  0.0000000 )
                  (  0.0000000 -1.0000000  0.0000000 )
                  (  0.0000000  0.0000000 -1.0000000 )


      isym =  5     180 deg rotation - cart. axis [1,1,0]        

 cryst.   s( 5) = (     0         -1          0      )
                  (    -1          0          0      )
                  (     0          0         -1      )

 cart.    s( 5) = (  0.0000000  1.0000000  0.0000000 )
                  (  1.0000000  0.0000000  0.0000000 )
                  (  0.0000000  0.0000000 -1.0000000 )


      isym =  6     180 deg rotation - cart. axis [1,-1,0]       

 cryst.   s( 6) = (    -1          0          1      )
                  (     0         -1          1      )
                  (     0          0          1      )

 cart.    s( 6) = (  0.0000000 -1.0000000  0.0000000 )
                  ( -1.0000000  0.0000000  0.0000000 )
                  (  0.0000000  0.0000000 -1.0000000 )


      isym =  7      90 deg rotation - cart. axis [0,0,-1]       

 cryst.   s( 7) = (     0          1          0      )
                  (     0          1         -1      )
                  (    -1          1          0      )

 cart.    s( 7) = (  0.0000000  1.0000000  0.0000000 )
                  ( -1.0000000  0.0000000  0.0000000 )
                  (  0.0000000  0.0000000  1.0000000 )


      isym =  8      90 deg rotation - cart. axis [0,0,1]        

 cryst.   s( 8) = (     1          0         -1      )
                  (     1          0          0      )
                  (     1         -1          0      )

 cart.    s( 8) = (  0.0000000 -1.0000000  0.0000000 )
                  (  1.0000000  0.0000000  0.0000000 )
                  (  0.0000000  0.0000000  1.0000000 )


      isym =  9     180 deg rotation - cart. axis [1,0,1]        

 cryst.   s( 9) = (    -1          0          0      )
                  (     0          0         -1      )
                  (     0         -1          0      )

 cart.    s( 9) = (  0.0000000  0.0000000  1.0000000 )
                  (  0.0000000 -1.0000000  0.0000000 )
                  (  1.0000000  0.0000000  0.0000000 )


      isym = 10     180 deg rotation - cart. axis [-1,0,1]       

 cryst.   s(10) = (     1          0          0      )
                  (     1         -1          0      )
                  (     1          0         -1      )

 cart.    s(10) = (  0.0000000  0.0000000 -1.0000000 )
                  (  0.0000000 -1.0000000  0.0000000 )
                  ( -1.0000000  0.0000000  0.0000000 )


      isym = 11      90 deg rotation - cart. axis [0,1,0]        

 cryst.   s(11) = (     0          1         -1      )
                  (    -1          1          0      )
                  (     0          1          0      )

 cart.    s(11) = (  0.0000000  0.0000000  1.0000000 )
                  (  0.0000000  1.0000000  0.0000000 )
                  ( -1.0000000  0.0000000  0.0000000 )


      isym = 12      90 deg rotation - cart. axis [0,-1,0]       

 cryst.   s(12) = (     0         -1          1      )
                  (     0          0          1      )
                  (    -1          0          1      )

 cart.    s(12) = (  0.0000000  0.0000000 -1.0000000 )
                  (  0.0000000  1.0000000  0.0000000 )
                  (  1.0000000  0.0000000  0.0000000 )


      isym = 13     180 deg rotation - cart. axis [0,1,1]        

 cryst.   s(13) = (    -1          1          0      )
                  (     0          1          0      )
                  (     0          1         -1      )

 cart.    s(13) = ( -1.0000000  0.0000000  0.0000000 )
                  (  0.0000000  0.0000000  1.0000000 )
                  (  0.0000000  1.0000000  0.0000000 )


      isym = 14     180 deg rotation - cart. axis [0,1,-1]       

 cryst.   s(14) = (     0          0         -1      )
                  (     0         -1          0      )
                  (    -1          0          0      )

 cart.    s(14) = ( -1.0000000  0.0000000  0.0000000 )
                  (  0.0000000  0.0000000 -1.0000000 )
                  (  0.0000000 -1.0000000  0.0000000 )


      isym = 15      90 deg rotation - cart. axis [-1,0,0]       

 cryst.   s(15) = (     0          0          1      )
                  (    -1          0          1      )
                  (     0         -1          1      )

 cart.    s(15) = (  1.0000000  0.0000000  0.0000000 )
                  (  0.0000000  0.0000000  1.0000000 )
                  (  0.0000000 -1.0000000  0.0000000 )


      isym = 16      90 deg rotation - cart. axis [1,0,0]        

 cryst.   s(16) = (     1         -1          0      )
                  (     1          0         -1      )
                  (     1          0          0      )

 cart.    s(16) = (  1.0000000  0.0000000  0.0000000 )
                  (  0.0000000  0.0000000 -1.0000000 )
                  (  0.0000000  1.0000000  0.0000000 )


      isym = 17     120 deg rotation - cart. axis [-1,-1,-1]     

 cryst.   s(17) = (    -1          0          1      )
                  (    -1          1          0      )
                  (    -1          0          0      )

 cart.    s(17) = (  0.0000000  1.0000000  0.0000000 )
                  (  0.0000000  0.0000000  1.0000000 )
                  (  1.0000000  0.0000000  0.0000000 )


      isym = 18     120 deg rotation - cart. axis [-1,1,1]       

 cryst.   s(18) = (     0          1          0      )
                  (     0          0          1      )
                  (     1          0          0      )

 cart.    s(18) = (  0.0000000 -1.0000000  0.0000000 )
                  (  0.0000000  0.0000000  1.0000000 )
                  ( -1.0000000  0.0000000  0.0000000 )


      isym = 19     120 deg rotation - cart. axis [1,1,-1]       

 cryst.   s(19) = (     1          0         -1      )
                  (     0          0         -1      )
                  (     0          1         -1      )

 cart.    s(19) = (  0.0000000  1.0000000  0.0000000 )
                  (  0.0000000  0.0000000 -1.0000000 )
                  ( -1.0000000  0.0000000  0.0000000 )


      isym = 20     120 deg rotation - cart. axis [1,-1,1]       

 cryst.   s(20) = (     0         -1          0      )
                  (     1         -1          0      )
                  (     0         -1          1      )

 cart.    s(20) = (  0.0000000 -1.0000000  0.0000000 )
                  (  0.0000000  0.0000000 -1.0000000 )
                  (  1.0000000  0.0000000  0.0000000 )


      isym = 21     120 deg rotation - cart. axis [1,1,1]        

 cryst.   s(21) = (     0          0         -1      )
                  (     0          1         -1      )
                  (     1          0         -1      )

 cart.    s(21) = (  0.0000000  0.0000000  1.0000000 )
                  (  1.0000000  0.0000000  0.0000000 )
                  (  0.0000000  1.0000000  0.0000000 )


      isym = 22     120 deg rotation - cart. axis [-1,1,-1]      

 cryst.   s(22) = (    -1          1          0      )
                  (    -1          0          0      )
                  (    -1          0          1      )

 cart.    s(22) = (  0.0000000  0.0000000  1.0000000 )
                  ( -1.0000000  0.0000000  0.0000000 )
                  (  0.0000000 -1.0000000  0.0000000 )


      isym = 23     120 deg rotation - cart. axis [1,-1,-1]      

 cryst.   s(23) = (     0          0          1      )
                  (     1          0          0      )
                  (     0          1          0      )

 cart.    s(23) = (  0.0000000  0.0000000 -1.0000000 )
                  ( -1.0000000  0.0000000  0.0000000 )
                  (  0.0000000  1.0000000  0.0000000 )


      isym = 24     120 deg rotation - cart. axis [-1,-1,1]      

 cryst.   s(24) = (     1         -1          0      )
                  (     0         -1          1      )
                  (     0         -1          0      )

 cart.    s(24) = (  0.0000000  0.0000000 -1.0000000 )
                  (  1.0000000  0.0000000  0.0000000 )
                  (  0.0000000 -1.0000000  0.0000000 )


      isym = 25     inversion                                    

 cryst.   s(25) = (    -1          0          0      )
                  (     0         -1          0      )
                  (     0          0         -1      )

 cart.    s(25) = ( -1.0000000  0.0000000  0.0000000 )
                  (  0.0000000 -1.0000000  0.0000000 )
                  (  0.0000000  0.0000000 -1.0000000 )


      isym = 26     inv. 180 deg rotation - cart. axis [0,0,1]   

 cryst.   s(26) = (     0         -1          1      )
                  (    -1          0          1      )
                  (     0          0          1      )

 cart.    s(26) = (  1.0000000  0.0000000  0.0000000 )
                  (  0.0000000  1.0000000  0.0000000 )
                  (  0.0000000  0.0000000 -1.0000000 )


      isym = 27     inv. 180 deg rotation - cart. axis [0,1,0]   

 cryst.   s(27) = (     1          0          0      )
                  (     1          0         -1      )
                  (     1         -1          0      )

 cart.    s(27) = (  1.0000000  0.0000000  0.0000000 )
                  (  0.0000000 -1.0000000  0.0000000 )
                  (  0.0000000  0.0000000  1.0000000 )


      isym = 28     inv. 180 deg rotation - cart. axis [1,0,0]   

 cryst.   s(28) = (     0          1         -1      )
                  (     0          1          0      )
                  (    -1          1          0      )

 cart.    s(28) = ( -1.0000000  0.0000000  0.0000000 )
                  (  0.0000000  1.0000000  0.0000000 )
                  (  0.0000000  0.0000000  1.0000000 )


      isym = 29     inv. 180 deg rotation - cart. axis [1,1,0]   

 cryst.   s(29) = (     0          1          0      )
                  (     1          0          0      )
                  (     0          0          1      )

 cart.    s(29) = (  0.0000000 -1.0000000  0.0000000 )
                  ( -1.0000000  0.0000000  0.0000000 )
                  (  0.0000000  0.0000000  1.0000000 )


      isym = 30     inv. 180 deg rotation - cart. axis [1,-1,0]  

 cryst.   s(30) = (     1          0         -1      )
                  (     0          1         -1      )
                  (     0          0         -1      )

 cart.    s(30) = (  0.0000000  1.0000000  0.0000000 )
                  (  1.0000000  0.0000000  0.0000000 )
                  (  0.0000000  0.0000000  1.0000000 )


      isym = 31     inv.  90 deg rotation - cart. axis [0,0,-1]  

 cryst.   s(31) = (     0         -1          0      )
                  (     0         -1          1      )
                  (     1         -1          0      )

 cart.    s(31) = (  0.0000000 -1.0000000  0.0000000 )
                  (  1.0000000  0.0000000  0.0000000 )
                  (  0.0000000  0.0000000 -1.0000000 )


      isym = 32     inv.  90 deg rotation - cart. axis [0,0,1]   

 cryst.   s(32) = (    -1          0          1      )
                  (    -1          0          0      )
                  (    -1          1          0      )

 cart.    s(32) = (  0.0000000  1.0000000  0.0000000 )
                  ( -1.0000000  0.0000000  0.0000000 )
                  (  0.0000000  0.0000000 -1.0000000 )


      isym = 33     inv. 180 deg rotation - cart. axis [1,0,1]   

 cryst.   s(33) = (     1          0          0      )
                  (     0          0          1      )
                  (     0          1          0      )

 cart.    s(33) = (  0.0000000  0.0000000 -1.0000000 )
                  (  0.0000000  1.0000000  0.0000000 )
                  ( -1.0000000  0.0000000  0.0000000 )


      isym = 34     inv. 180 deg rotation - cart. axis [-1,0,1]  

 cryst.   s(34) = (    -1          0          0      )
                  (    -1          1          0      )
                  (    -1          0          1      )

 cart.    s(34) = (  0.0000000  0.0000000  1.0000000 )
                  (  0.0000000  1.0000000  0.0000000 )
                  (  1.0000000  0.0000000  0.0000000 )


      isym = 35     inv.  90 deg rotation - cart. axis [0,1,0]   

 cryst.   s(35) = (     0         -1          1      )
                  (     1         -1          0      )
                  (     0         -1          0      )

 cart.    s(35) = (  0.0000000  0.0000000 -1.0000000 )
                  (  0.0000000 -1.0000000  0.0000000 )
                  (  1.0000000  0.0000000  0.0000000 )


      isym = 36     inv.  90 deg rotation - cart. axis [0,-1,0]  

 cryst.   s(36) = (     0          1         -1      )
                  (     0          0         -1      )
                  (     1          0         -1      )

 cart.    s(36) = (  0.0000000  0.0000000  1.0000000 )
                  (  0.0000000 -1.0000000  0.0000000 )
                  ( -1.0000000  0.0000000  0.0000000 )


      isym = 37     inv. 180 deg rotation - cart. axis [0,1,1]   

 cryst.   s(37) = (     1         -1          0      )
                  (     0         -1          0      )
                  (     0         -1          1      )

 cart.    s(37) = (  1.0000000  0.0000000  0.0000000 )
                  (  0.0000000  0.0000000 -1.0000000 )
                  (  0.0000000 -1.0000000  0.0000000 )


      isym = 38     inv. 180 deg rotation - cart. axis [0,1,-1]  

 cryst.   s(38) = (     0          0          1      )
                  (     0          1          0      )
                  (     1          0          0      )

 cart.    s(38) = (  1.0000000  0.0000000  0.0000000 )
                  (  0.0000000  0.0000000  1.0000000 )
                  (  0.0000000  1.0000000  0.0000000 )


      isym = 39     inv.  90 deg rotation - cart. axis [-1,0,0]  

 cryst.   s(39) = (     0          0         -1      )
                  (     1          0         -1      )
                  (     0          1         -1      )

 cart.    s(39) = ( -1.0000000  0.0000000  0.0000000 )
                  (  0.0000000  0.0000000 -1.0000000 )
                  (  0.0000000  1.0000000  0.0000000 )


      isym = 40     inv.  90 deg rotation - cart. axis [1,0,0]   

 cryst.   s(40) = (    -1          1          0      )
                  (    -1          0          1      )
                  (    -1          0          0      )

 cart.    s(40) = ( -1.0000000  0.0000000  0.0000000 )
                  (  0.0000000  0.0000000  1.0000000 )
                  (  0.0000000 -1.0000000  0.0000000 )


      isym = 41     inv. 120 deg rotation - cart. axis [-1,-1,-1]

 cryst.   s(41) = (     1          0         -1      )
                  (     1         -1          0      )
                  (     1          0          0      )

 cart.    s(41) = (  0.0000000 -1.0000000  0.0000000 )
                  (  0.0000000  0.0000000 -1.0000000 )
                  ( -1.0000000  0.0000000  0.0000000 )


      isym = 42     inv. 120 deg rotation - cart. axis [-1,1,1]  

 cryst.   s(42) = (     0         -1          0      )
                  (     0          0         -1      )
                  (    -1          0          0      )

 cart.    s(42) = (  0.0000000  1.0000000  0.0000000 )
                  (  0.0000000  0.0000000 -1.0000000 )
                  (  1.0000000  0.0000000  0.0000000 )


      isym = 43     inv. 120 deg rotation - cart. axis [1,1,-1]  

 cryst.   s(43) = (    -1          0          1      )
                  (     0          0          1      )
                  (     0         -1          1      )

 cart.    s(43) = (  0.0000000 -1.0000000  0.0000000 )
                  (  0.0000000  0.0000000  1.0000000 )
                  (  1.0000000  0.0000000  0.0000000 )


      isym = 44     inv. 120 deg rotation - cart. axis [1,-1,1]  

 cryst.   s(44) = (     0          1          0      )
                  (    -1          1          0      )
                  (     0          1         -1      )

 cart.    s(44) = (  0.0000000  1.0000000  0.0000000 )
                  (  0.0000000  0.0000000  1.0000000 )
                  ( -1.0000000  0.0000000  0.0000000 )


      isym = 45     inv. 120 deg rotation - cart. axis [1,1,1]   

 cryst.   s(45) = (     0          0          1      )
                  (     0         -1          1      )
                  (    -1          0          1      )

 cart.    s(45) = (  0.0000000  0.0000000 -1.0000000 )
                  ( -1.0000000  0.0000000  0.0000000 )
                  (  0.0000000 -1.0000000  0.0000000 )


      isym = 46     inv. 120 deg rotation - cart. axis [-1,1,-1] 

 cryst.   s(46) = (     1         -1          0      )
                  (     1          0          0      )
                  (     1          0         -1      )

 cart.    s(46) = (  0.0000000  0.0000000 -1.0000000 )
                  (  1.0000000  0.0000000  0.0000000 )
                  (  0.0000000  1.0000000  0.0000000 )


      isym = 47     inv. 120 deg rotation - cart. axis [1,-1,-1] 

 cryst.   s(47) = (     0          0         -1      )
                  (    -1          0          0      )
                  (     0         -1          0      )

 cart.    s(47) = (  0.0000000  0.0000000  1.0000000 )
                  (  1.0000000  0.0000000  0.0000000 )
                  (  0.0000000 -1.0000000  0.0000000 )


      isym = 48     inv. 120 deg rotation - cart. axis [-1,-1,1] 

 cryst.   s(48) = (    -1          1          0      )
                  (     0          1         -1      )
                  (     0          1          0      )

 cart.    s(48) = (  0.0000000  0.0000000  1.0000000 )
                  ( -1.0000000  0.0000000  0.0000000 )
                  (  0.0000000  1.0000000  0.0000000 )


     point group O_h (m-3m) 
     there are 10 classes
     the character table:

       E     8C3   6C2'  6C4   3C2   i     6S4   8S6   3s_h  6s_d 
A_1g   1.00  1.00  1.00  1.00  1.00  1.00  1.00  1.00  1.00  1.00
A_2g   1.00  1.00 -1.00 -1.00  1.00  1.00 -1.00  1.00  1.00 -1.00
E_g    2.00 -1.00  0.00  0.00  2.00  2.00  0.00 -1.00  2.00  0.00
T_1g   3.00  0.00 -1.00  1.00 -1.00  3.00  1.00  0.00 -1.00 -1.00
T_2g   3.00  0.00  1.00 -1.00 -1.00  3.00 -1.00  0.00 -1.00  1.00
A_1u   1.00  1.00  1.00  1.00  1.00 -1.00 -1.00 -1.00 -1.00 -1.00
A_2u   1.00  1.00 -1.00 -1.00  1.00 -1.00  1.00 -1.00 -1.00  1.00
E_u    2.00 -1.00  0.00  0.00  2.00 -2.00  0.00  1.00 -2.00  0.00
T_1u   3.00  0.00 -1.00  1.00 -1.00 -3.00 -1.00  0.00  1.00  1.00
T_2u   3.00  0.00  1.00 -1.00 -1.00 -3.00  1.00  0.00  1.00 -1.00

     the symmetry operations in each class:
     E        1
     3C2      2    4    3
     6C2'     5    6   14   13   10    9
     6C4      7    8   15   16   12   11
     8C3     17   19   20   18   24   21   22   23
     i       25
     3s_h    26   28   27
     6s_d    29   30   38   37   34   33
     6S4     31   32   39   40   36   35
     8S6     41   43   44   42   48   45   46   47

   Cartesian axes

     site n.     atom                  positions (alat units)
         1           Ni  tau(   1) = (   0.0000000   0.0000000   0.0000000  )

   Crystallographic axes

     site n.     atom                  positions (cryst. coord.)
         1           Ni  tau(   1) = (  0.0000000  0.0000000  0.0000000  )

     number of k points=   110  Marzari-Vanderbilt smearing, width (Ry)=  0.0200
                       cart. coord. in units 2pi/alat
        k(    1) = (  -0.0500000   0.0500000   0.0500000), wk =   0.0040000
        k(    2) = (  -0.1500000   0.1500000  -0.0500000), wk =   0.0120000
        k(    3) = (  -0.2500000   0.2500000  -0.1500000), wk =   0.0120000
        k(    4) = (  -0.3500000   0.3500000  -0.2500000), wk =   0.0120000
        k(    5) = (  -0.4500000   0.4500000  -0.3500000), wk =   0.0120000
        k(    6) = (   0.4500000  -0.4500000   0.5500000), wk =   0.0120000
        k(    7) = (   0.3500000  -0.3500000   0.4500000), wk =   0.0120000
        k(    8) = (   0.2500000  -0.2500000   0.3500000), wk =   0.0120000
        k(    9) = (   0.1500000  -0.1500000   0.2500000), wk =   0.0120000
        k(   10) = (   0.0500000  -0.0500000   0.1500000), wk =   0.0120000
        k(   11) = (  -0.0500000   0.2500000   0.0500000), wk =   0.0120000
        k(   12) = (  -0.1500000   0.3500000  -0.0500000), wk =   0.0240000
        k(   13) = (  -0.2500000   0.4500000  -0.1500000), wk =   0.0240000
        k(   14) = (  -0.3500000   0.5500000  -0.2500000), wk =   0.0240000
        k(   15) = (   0.5500000  -0.3500000   0.6500000), wk =   0.0240000
        k(   16) = (   0.4500000  -0.2500000   0.5500000), wk =   0.0240000
        k(   17) = (   0.3500000  -0.1500000   0.4500000), wk =   0.0240000
        k(   18) = (   0.2500000  -0.0500000   0.3500000), wk =   0.0240000
        k(   19) = (   0.1500000   0.0500000   0.2500000), wk =   0.0240000
        k(   20) = (  -0.0500000   0.4500000   0.0500000), wk =   0.0120000
        k(   21) = (  -0.1500000   0.5500000  -0.0500000), wk =   0.0240000
        k(   22) = (  -0.2500000   0.6500000  -0.1500000), wk =   0.0240000
        k(   23) = (   0.6500000  -0.2500000   0.7500000), wk =   0.0240000
        k(   24) = (   0.5500000  -0.1500000   0.6500000), wk =   0.0240000
        k(   25) = (   0.4500000  -0.0500000   0.5500000), wk =   0.0240000
        k(   26) = (   0.3500000   0.0500000   0.4500000), wk =   0.0240000
        k(   27) = (   0.2500000   0.1500000   0.3500000), wk =   0.0240000
        k(   28) = (  -0.0500000   0.6500000   0.0500000), wk =   0.0120000
        k(   29) = (  -0.1500000   0.7500000  -0.0500000), wk =   0.0240000
        k(   30) = (   0.7500000  -0.1500000   0.8500000), wk =   0.0240000
        k(   31) = (   0.6500000  -0.0500000   0.7500000), wk =   0.0240000
        k(   32) = (   0.5500000   0.0500000   0.6500000), wk =   0.0240000
        k(   33) = (   0.4500000   0.1500000   0.5500000), wk =   0.0240000
        k(   34) = (   0.3500000   0.2500000   0.4500000), wk =   0.0240000
        k(   35) = (  -0.0500000   0.8500000   0.0500000), wk =   0.0120000
        k(   36) = (   0.8500000  -0.0500000   0.9500000), wk =   0.0240000
        k(   37) = (   0.7500000   0.0500000   0.8500000), wk =   0.0240000
        k(   38) = (   0.6500000   0.1500000   0.7500000), wk =   0.0240000
        k(   39) = (   0.5500000   0.2500000   0.6500000), wk =   0.0240000
        k(   40) = (   0.4500000   0.3500000   0.5500000), wk =   0.0240000
        k(   41) = (  -0.0500000  -0.9500000   0.0500000), wk =   0.0120000
        k(   42) = (  -0.1500000  -0.8500000  -0.0500000), wk =   0.0240000
        k(   43) = (  -0.2500000  -0.7500000  -0.1500000), wk =   0.0240000
        k(   44) = (  -0.3500000  -0.6500000  -0.2500000), wk =   0.0240000
        k(   45) = (  -0.0500000  -0.7500000   0.0500000), wk =   0.0120000
        k(   46) = (  -0.1500000  -0.6500000  -0.0500000), wk =   0.0240000
        k(   47) = (  -0.2500000  -0.5500000  -0.1500000), wk =   0.0240000
        k(   48) = (  -0.0500000  -0.5500000   0.0500000), wk =   0.0120000
        k(   49) = (  -0.1500000  -0.4500000  -0.0500000), wk =   0.0240000
        k(   50) = (  -0.0500000  -0.3500000   0.0500000), wk =   0.0120000
        k(   51) = (  -0.1500000   0.1500000   0.1500000), wk =   0.0040000
        k(   52) = (  -0.2500000   0.2500000   0.0500000), wk =   0.0120000
        k(   53) = (  -0.3500000   0.3500000  -0.0500000), wk =   0.0120000
        k(   54) = (  -0.4500000   0.4500000  -0.1500000), wk =   0.0120000
        k(   55) = (   0.4500000  -0.4500000   0.7500000), wk =   0.0120000
        k(   56) = (   0.3500000  -0.3500000   0.6500000), wk =   0.0120000
        k(   57) = (   0.2500000  -0.2500000   0.5500000), wk =   0.0120000
        k(   58) = (   0.1500000  -0.1500000   0.4500000), wk =   0.0120000
        k(   59) = (  -0.1500000   0.3500000   0.1500000), wk =   0.0120000
        k(   60) = (  -0.2500000   0.4500000   0.0500000), wk =   0.0240000
        k(   61) = (  -0.3500000   0.5500000  -0.0500000), wk =   0.0240000
        k(   62) = (   0.5500000  -0.3500000   0.8500000), wk =   0.0240000
        k(   63) = (   0.4500000  -0.2500000   0.7500000), wk =   0.0240000
        k(   64) = (   0.3500000  -0.1500000   0.6500000), wk =   0.0240000
        k(   65) = (   0.2500000  -0.0500000   0.5500000), wk =   0.0240000
        k(   66) = (  -0.1500000   0.5500000   0.1500000), wk =   0.0120000
        k(   67) = (  -0.2500000   0.6500000   0.0500000), wk =   0.0240000
        k(   68) = (   0.6500000  -0.2500000   0.9500000), wk =   0.0240000
        k(   69) = (   0.5500000  -0.1500000   0.8500000), wk =   0.0240000
        k(   70) = (   0.4500000  -0.0500000   0.7500000), wk =   0.0240000
        k(   71) = (   0.3500000   0.0500000   0.6500000), wk =   0.0240000
        k(   72) = (  -0.1500000   0.7500000   0.1500000), wk =   0.0120000
        k(   73) = (   0.7500000  -0.1500000   1.0500000), wk =   0.0240000
        k(   74) = (   0.6500000  -0.0500000   0.9500000), wk =   0.0240000
        k(   75) = (   0.5500000   0.0500000   0.8500000), wk =   0.0240000
        k(   76) = (   0.4500000   0.1500000   0.7500000), wk =   0.0240000
        k(   77) = (  -0.1500000  -1.0500000   0.1500000), wk =   0.0120000
        k(   78) = (  -0.2500000  -0.9500000   0.0500000), wk =   0.0240000
        k(   79) = (  -0.3500000  -0.8500000  -0.0500000), wk =   0.0240000
        k(   80) = (  -0.1500000  -0.8500000   0.1500000), wk =   0.0120000
        k(   81) = (  -0.2500000  -0.7500000   0.0500000), wk =   0.0240000
        k(   82) = (  -0.1500000  -0.6500000   0.1500000), wk =   0.0120000
        k(   83) = (  -0.2500000   0.2500000   0.2500000), wk =   0.0040000
        k(   84) = (  -0.3500000   0.3500000   0.1500000), wk =   0.0120000
        k(   85) = (  -0.4500000   0.4500000   0.0500000), wk =   0.0120000
        k(   86) = (   0.4500000  -0.4500000   0.9500000), wk =   0.0120000
        k(   87) = (   0.3500000  -0.3500000   0.8500000), wk =   0.0120000
        k(   88) = (   0.2500000  -0.2500000   0.7500000), wk =   0.0120000
        k(   89) = (  -0.2500000   0.4500000   0.2500000), wk =   0.0120000
        k(   90) = (  -0.3500000   0.5500000   0.1500000), wk =   0.0240000
        k(   91) = (   0.5500000  -0.3500000   1.0500000), wk =   0.0240000
        k(   92) = (   0.4500000  -0.2500000   0.9500000), wk =   0.0240000
        k(   93) = (   0.3500000  -0.1500000   0.8500000), wk =   0.0240000
        k(   94) = (  -0.2500000   0.6500000   0.2500000), wk =   0.0120000
        k(   95) = (   0.6500000  -0.2500000   1.1500000), wk =   0.0240000
        k(   96) = (   0.5500000  -0.1500000   1.0500000), wk =   0.0240000
        k(   97) = (   0.4500000  -0.0500000   0.9500000), wk =   0.0240000
        k(   98) = (  -0.2500000  -1.1500000   0.2500000), wk =   0.0120000
        k(   99) = (  -0.3500000  -1.0500000   0.1500000), wk =   0.0240000
        k(  100) = (  -0.2500000  -0.9500000   0.2500000), wk =   0.0120000
        k(  101) = (  -0.3500000   0.3500000   0.3500000), wk =   0.0040000
        k(  102) = (  -0.4500000   0.4500000   0.2500000), wk =   0.0120000
        k(  103) = (   0.4500000  -0.4500000   1.1500000), wk =   0.0120000
        k(  104) = (   0.3500000  -0.3500000   1.0500000), wk =   0.0120000
        k(  105) = (  -0.3500000   0.5500000   0.3500000), wk =   0.0120000
        k(  106) = (   0.5500000  -0.3500000   1.2500000), wk =   0.0240000
        k(  107) = (   0.4500000  -0.2500000   1.1500000), wk =   0.0240000
        k(  108) = (  -0.3500000  -1.2500000   0.3500000), wk =   0.0120000
        k(  109) = (  -0.4500000   0.4500000   0.4500000), wk =   0.0040000
        k(  110) = (   0.4500000  -0.4500000   1.3500000), wk =   0.0120000

                       cryst. coord.
        k(    1) = (   0.0500000   0.0500000   0.0500000), wk =   0.0040000
        k(    2) = (   0.0500000   0.0500000   0.1500000), wk =   0.0120000
        k(    3) = (   0.0500000   0.0500000   0.2500000), wk =   0.0120000
        k(    4) = (   0.0500000   0.0500000   0.3500000), wk =   0.0120000
        k(    5) = (   0.0500000   0.0500000   0.4500000), wk =   0.0120000
        k(    6) = (   0.0500000   0.0500000  -0.4500000), wk =   0.0120000
        k(    7) = (   0.0500000   0.0500000  -0.3500000), wk =   0.0120000
        k(    8) = (   0.0500000   0.0500000  -0.2500000), wk =   0.0120000
        k(    9) = (   0.0500000   0.0500000  -0.1500000), wk =   0.0120000
        k(   10) = (   0.0500000   0.0500000  -0.0500000), wk =   0.0120000
        k(   11) = (   0.0500000   0.1500000   0.1500000), wk =   0.0120000
        k(   12) = (   0.0500000   0.1500000   0.2500000), wk =   0.0240000
        k(   13) = (   0.0500000   0.1500000   0.3500000), wk =   0.0240000
        k(   14) = (   0.0500000   0.1500000   0.4500000), wk =   0.0240000
        k(   15) = (   0.0500000   0.1500000  -0.4500000), wk =   0.0240000
        k(   16) = (   0.0500000   0.1500000  -0.3500000), wk =   0.0240000
        k(   17) = (   0.0500000   0.1500000  -0.2500000), wk =   0.0240000
        k(   18) = (   0.0500000   0.1500000  -0.1500000), wk =   0.0240000
        k(   19) = (   0.0500000   0.1500000  -0.0500000), wk =   0.0240000
        k(   20) = (   0.0500000   0.2500000   0.2500000), wk =   0.0120000
        k(   21) = (   0.0500000   0.2500000   0.3500000), wk =   0.0240000
        k(   22) = (   0.0500000   0.2500000   0.4500000), wk =   0.0240000
        k(   23) = (   0.0500000   0.2500000  -0.4500000), wk =   0.0240000
        k(   24) = (   0.0500000   0.2500000  -0.3500000), wk =   0.0240000
        k(   25) = (   0.0500000   0.2500000  -0.2500000), wk =   0.0240000
        k(   26) = (   0.0500000   0.2500000  -0.1500000), wk =   0.0240000
        k(   27) = (   0.0500000   0.2500000  -0.0500000), wk =   0.0240000
        k(   28) = (   0.0500000   0.3500000   0.3500000), wk =   0.0120000
        k(   29) = (   0.0500000   0.3500000   0.4500000), wk =   0.0240000
        k(   30) = (   0.0500000   0.3500000  -0.4500000), wk =   0.0240000
        k(   31) = (   0.0500000   0.3500000  -0.3500000), wk =   0.0240000
        k(   32) = (   0.0500000   0.3500000  -0.2500000), wk =   0.0240000
        k(   33) = (   0.0500000   0.3500000  -0.1500000), wk =   0.0240000
        k(   34) = (   0.0500000   0.3500000  -0.0500000), wk =   0.0240000
        k(   35) = (   0.0500000   0.4500000   0.4500000), wk =   0.0120000
        k(   36) = (   0.0500000   0.4500000  -0.4500000), wk =   0.0240000
        k(   37) = (   0.0500000   0.4500000  -0.3500000), wk =   0.0240000
        k(   38) = (   0.0500000   0.4500000  -0.2500000), wk =   0.0240000
        k(   39) = (   0.0500000   0.4500000  -0.1500000), wk =   0.0240000
        k(   40) = (   0.0500000   0.4500000  -0.0500000), wk =   0.0240000
        k(   41) = (   0.0500000  -0.4500000  -0.4500000), wk =   0.0120000
        k(   42) = (   0.0500000  -0.4500000  -0.3500000), wk =   0.0240000
        k(   43) = (   0.0500000  -0.4500000  -0.2500000), wk =   0.0240000
        k(   44) = (   0.0500000  -0.4500000  -0.1500000), wk =   0.0240000
        k(   45) = (   0.0500000  -0.3500000  -0.3500000), wk =   0.0120000
        k(   46) = (   0.0500000  -0.3500000  -0.2500000), wk =   0.0240000
        k(   47) = (   0.0500000  -0.3500000  -0.1500000), wk =   0.0240000
        k(   48) = (   0.0500000  -0.2500000  -0.2500000), wk =   0.0120000
        k(   49) = (   0.0500000  -0.2500000  -0.1500000), wk =   0.0240000
        k(   50) = (   0.0500000  -0.1500000  -0.1500000), wk =   0.0120000
        k(   51) = (   0.1500000   0.1500000   0.1500000), wk =   0.0040000
        k(   52) = (   0.1500000   0.1500000   0.2500000), wk =   0.0120000
        k(   53) = (   0.1500000   0.1500000   0.3500000), wk =   0.0120000
        k(   54) = (   0.1500000   0.1500000   0.4500000), wk =   0.0120000
        k(   55) = (   0.1500000   0.1500000  -0.4500000), wk =   0.0120000
        k(   56) = (   0.1500000   0.1500000  -0.3500000), wk =   0.0120000
        k(   57) = (   0.1500000   0.1500000  -0.2500000), wk =   0.0120000
        k(   58) = (   0.1500000   0.1500000  -0.1500000), wk =   0.0120000
        k(   59) = (   0.1500000   0.2500000   0.2500000), wk =   0.0120000
        k(   60) = (   0.1500000   0.2500000   0.3500000), wk =   0.0240000
        k(   61) = (   0.1500000   0.2500000   0.4500000), wk =   0.0240000
        k(   62) = (   0.1500000   0.2500000  -0.4500000), wk =   0.0240000
        k(   63) = (   0.1500000   0.2500000  -0.3500000), wk =   0.0240000
        k(   64) = (   0.1500000   0.2500000  -0.2500000), wk =   0.0240000
        k(   65) = (   0.1500000   0.2500000  -0.1500000), wk =   0.0240000
        k(   66) = (   0.1500000   0.3500000   0.3500000), wk =   0.0120000
        k(   67) = (   0.1500000   0.3500000   0.4500000), wk =   0.0240000
        k(   68) = (   0.1500000   0.3500000  -0.4500000), wk =   0.0240000
        k(   69) = (   0.1500000   0.3500000  -0.3500000), wk =   0.0240000
        k(   70) = (   0.1500000   0.3500000  -0.2500000), wk =   0.0240000
        k(   71) = (   0.1500000   0.3500000  -0.1500000), wk =   0.0240000
        k(   72) = (   0.1500000   0.4500000   0.4500000), wk =   0.0120000
        k(   73) = (   0.1500000   0.4500000  -0.4500000), wk =   0.0240000
        k(   74) = (   0.1500000   0.4500000  -0.3500000), wk =   0.0240000
        k(   75) = (   0.1500000   0.4500000  -0.2500000), wk =   0.0240000
        k(   76) = (   0.1500000   0.4500000  -0.1500000), wk =   0.0240000
        k(   77) = (   0.1500000  -0.4500000  -0.4500000), wk =   0.0120000
        k(   78) = (   0.1500000  -0.4500000  -0.3500000), wk =   0.0240000
        k(   79) = (   0.1500000  -0.4500000  -0.2500000), wk =   0.0240000
        k(   80) = (   0.1500000  -0.3500000  -0.3500000), wk =   0.0120000
        k(   81) = (   0.1500000  -0.3500000  -0.2500000), wk =   0.0240000
        k(   82) = (   0.1500000  -0.2500000  -0.2500000), wk =   0.0120000
        k(   83) = (   0.2500000   0.2500000   0.2500000), wk =   0.0040000
        k(   84) = (   0.2500000   0.2500000   0.3500000), wk =   0.0120000
        k(   85) = (   0.2500000   0.2500000   0.4500000), wk =   0.0120000
        k(   86) = (   0.2500000   0.2500000  -0.4500000), wk =   0.0120000
        k(   87) = (   0.2500000   0.2500000  -0.3500000), wk =   0.0120000
        k(   88) = (   0.2500000   0.2500000  -0.2500000), wk =   0.0120000
        k(   89) = (   0.2500000   0.3500000   0.3500000), wk =   0.0120000
        k(   90) = (   0.2500000   0.3500000   0.4500000), wk =   0.0240000
        k(   91) = (   0.2500000   0.3500000  -0.4500000), wk =   0.0240000
        k(   92) = (   0.2500000   0.3500000  -0.3500000), wk =   0.0240000
        k(   93) = (   0.2500000   0.3500000  -0.2500000), wk =   0.0240000
        k(   94) = (   0.2500000   0.4500000   0.4500000), wk =   0.0120000
        k(   95) = (   0.2500000   0.4500000  -0.4500000), wk =   0.0240000
        k(   96) = (   0.2500000   0.4500000  -0.3500000), wk =   0.0240000
        k(   97) = (   0.2500000   0.4500000  -0.2500000), wk =   0.0240000
        k(   98) = (   0.2500000  -0.4500000  -0.4500000), wk =   0.0120000
        k(   99) = (   0.2500000  -0.4500000  -0.3500000), wk =   0.0240000
        k(  100) = (   0.2500000  -0.3500000  -0.3500000), wk =   0.0120000
        k(  101) = (   0.3500000   0.3500000   0.3500000), wk =   0.0040000
        k(  102) = (   0.3500000   0.3500000   0.4500000), wk =   0.0120000
        k(  103) = (   0.3500000   0.3500000  -0.4500000), wk =   0.0120000
        k(  104) = (   0.3500000   0.3500000  -0.3500000), wk =   0.0120000
        k(  105) = (   0.3500000   0.4500000   0.4500000), wk =   0.0120000
        k(  106) = (   0.3500000   0.4500000  -0.4500000), wk =   0.0240000
        k(  107) = (   0.3500000   0.4500000  -0.3500000), wk =   0.0240000
        k(  108) = (   0.3500000  -0.4500000  -0.4500000), wk =   0.0120000
        k(  109) = (   0.4500000   0.4500000   0.4500000), wk =   0.0040000
        k(  110) = (   0.4500000   0.4500000  -0.4500000), wk =   0.0120000

     Dense  grid:     2565 G-vectors     FFT dimensions: (  20,  20,  20)

     Largest allocated arrays     est. size (Mb)     dimensions
        Kohn-Sham Wavefunctions         0.07 Mb     (     328,   13)
        NL pseudopotentials             0.09 Mb     (     328,   18)
        Each V/rho on FFT grid          0.12 Mb     (    8000)
        Each G-vector array             0.02 Mb     (    2565)
        G-vector shells                 0.00 Mb     (      62)
     Largest temporary arrays     est. size (Mb)     dimensions
        Auxiliary wavefunctions         0.26 Mb     (     328,   52)
        Each subspace H/S matrix        0.04 Mb     (      52,   52)
        Each <psi_i|beta_j> matrix      0.00 Mb     (      18,   13)
        Arrays for rho mixing           0.98 Mb     (    8000,    8)

     Check: negative/imaginary core charge=   -0.000044    0.000000

     Initial potential from superposition of free atoms

     starting charge   17.99977, renormalised to   18.00000
     Starting wfc are   10 randomized atomic wfcs +    3 random wfc

     total cpu time spent up to now is        3.2 secs

     per-process dynamical memory:    15.0 Mb

     Self-consistent Calculation

     iteration #  1     ecut=    40.00 Ry     beta=0.70
     Davidson diagonalization with overlap
     ethr =  1.00E-02,  avg # of iterations =  4.3

     Threshold (ethr) on eigenvalues was too large:
     Diagonalizing with lowered threshold

     Davidson diagonalization with overlap
     ethr =  1.93E-04,  avg # of iterations =  1.1

     total cpu time spent up to now is        9.8 secs

     total energy              =    -338.86748895 Ry
     Harris-Foulkes estimate   =    -338.88884786 Ry
     estimated scf accuracy    <       0.03608487 Ry

     iteration #  2     ecut=    40.00 Ry     beta=0.70
     Davidson diagonalization with overlap
     ethr =  2.00E-04,  avg # of iterations =  2.0

     total cpu time spent up to now is       12.3 secs

     total energy              =    -338.85971686 Ry
     Harris-Foulkes estimate   =    -338.89590107 Ry
     estimated scf accuracy    <       0.09361056 Ry

     iteration #  3     ecut=    40.00 Ry     beta=0.70
     Davidson diagonalization with overlap
     ethr =  2.00E-04,  avg # of iterations =  2.0

     total cpu time spent up to now is       14.5 secs

     total energy              =    -338.87852068 Ry
     Harris-Foulkes estimate   =    -338.87977341 Ry
     estimated scf accuracy    <       0.00458211 Ry

     iteration #  4     ecut=    40.00 Ry     beta=0.70
     Davidson diagonalization with overlap
     ethr =  2.55E-05,  avg # of iterations =  2.0

     total cpu time spent up to now is       16.4 secs

     total energy              =    -338.87913541 Ry
     Harris-Foulkes estimate   =    -338.87913073 Ry
     estimated scf accuracy    <       0.00002358 Ry

     iteration #  5     ecut=    40.00 Ry     beta=0.70
     Davidson diagonalization with overlap
     ethr =  1.31E-07,  avg # of iterations =  2.8

     total cpu time spent up to now is       19.1 secs

     total energy              =    -338.87914539 Ry
     Harris-Foulkes estimate   =    -338.87914588 Ry
     estimated scf accuracy    <       0.00000149 Ry

     iteration #  6     ecut=    40.00 Ry     beta=0.70
     Davidson diagonalization with overlap
     ethr =  8.28E-09,  avg # of iterations =  1.4

     total cpu time spent up to now is       21.1 secs

     End of self-consistent calculation

          k =-0.0500 0.0500 0.0500 (   328 PWs)   bands (ev):

   -85.6208 -45.6028 -45.6028 -45.5384   8.7818  15.5728  15.5799  15.5799
    16.6451  16.6451  40.8090  43.6158  44.7060

     occupation numbers 
     1.0000   1.0000   1.0000   1.0000   1.0000   1.0000   1.0000   1.0000
     1.0004   1.0004   0.0000   0.0000   0.0000

          k =-0.1500 0.1500-0.0500 (   317 PWs)   bands (ev):

   -85.6131 -45.5281 -45.4877 -45.3812   9.3089  15.5319  15.7184  15.8010
    16.6507  16.7264  38.5998  40.9860  43.6227

     occupation numbers 
     1.0000   1.0000   1.0000   1.0000   1.0000   1.0000   1.0000   1.0000
     1.0004   1.0016   0.0000   0.0000   0.0000

          k =-0.2500 0.2500-0.1500 (   314 PWs)   bands (ev):

   -85.6034 -45.4813 -45.4350 -45.4249  10.4963  15.2731  15.8747  15.8971
    16.6923  16.9411  33.6871  39.8749  43.0184

     occupation numbers 
     1.0000   1.0000   1.0000   1.0000   1.0000   1.0000   1.0000   1.0000
     1.0009   1.0263   0.0000   0.0000   0.0000

          k =-0.3500 0.3500-0.2500 (   312 PWs)   bands (ev):

   -85.5915 -45.4761 -45.4317 -45.3635  12.0309  15.3098  15.7669  15.8575
    17.1030  17.3299  28.9837  39.2441  41.9229

     occupation numbers 
     1.0000   1.0000   1.0000   1.0000   1.0000   1.0000   1.0000   1.0000
     1.0768   0.9281   0.0000   0.0000   0.0000

          k =-0.4500 0.4500-0.3500 (   319 PWs)   bands (ev):

   -85.5852 -45.5966 -45.4606 -45.4533  13.0230  15.6410  15.7089  16.1865
    17.3116  17.7094  25.1085  39.0150  41.2054

     occupation numbers 
     1.0000   1.0000   1.0000   1.0000   1.0000   1.0000   1.0000   1.0000
     0.9610   0.0951   0.0000   0.0000   0.0000

          k = 0.4500-0.4500 0.5500 (   319 PWs)   bands (ev):

   -85.5827 -45.5913 -45.4592 -45.4550  13.2073  15.5876  15.6824  16.6641
    17.4753  18.0277  23.7221  39.1413  41.2154

     occupation numbers 
     1.0000   1.0000   1.0000   1.0000   1.0000   1.0000   1.0000   1.0006
     0.5652   0.0009   0.0000   0.0000   0.0000

          k = 0.3500-0.3500 0.4500 (   317 PWs)   bands (ev):

   -85.5868 -45.5844 -45.4785 -45.3774  12.7878  15.6661  15.7516  15.8180
    17.3801  17.4594  26.2584  39.6152  40.6904

     occupation numbers 
     1.0000   1.0000   1.0000   1.0000   1.0000   1.0000   1.0000   1.0000
     0.8189   0.6093   0.0000   0.0000   0.0000

          k = 0.2500-0.2500 0.3500 (   313 PWs)   bands (ev):

   -85.5954 -45.4669 -45.4562 -45.3818  11.5200  15.2187  15.8269  15.8540
    17.0264  17.1298  30.4875  40.3722  40.8782

     occupation numbers 
     1.0000   1.0000   1.0000   1.0000   1.0000   1.0000   1.0000   1.0000
     1.0526   1.0818   0.0000   0.0000   0.0000

          k = 0.1500-0.1500 0.2500 (   315 PWs)   bands (ev):

   -85.6072 -45.4887 -45.4583 -45.4215  10.0369  15.3259  15.8612  15.8886
    16.6327  16.8540  35.3454  41.1929  41.6605

     occupation numbers 
     1.0000   1.0000   1.0000   1.0000   1.0000   1.0000   1.0000   1.0000
     1.0003   1.0101   0.0000   0.0000   0.0000

          k = 0.0500-0.0500 0.1500 (   322 PWs)   bands (ev):

   -85.6167 -45.5535 -45.5427 -45.4554   9.0488  15.4941  15.6925  15.7061
    16.6338  16.7172  39.9577  42.3214  42.9812

     occupation numbers 
     1.0000   1.0000   1.0000   1.0000   1.0000   1.0000   1.0000   1.0000
     1.0003   1.0014   0.0000   0.0000   0.0000

          k =-0.0500 0.2500 0.0500 (   317 PWs)   bands (ev):

   -85.6111 -45.5167 -45.5022 -45.3860   9.5557  15.3547  15.8789  15.9103
    16.5048  16.8014  38.7715  40.9998  41.0975

     occupation numbers 
     1.0000   1.0000   1.0000   1.0000   1.0000   1.0000   1.0000   1.0000
     1.0000   1.0050   0.0000   0.0000   0.0000

          k =-0.1500 0.3500-0.0500 (   315 PWs)   bands (ev):

   -85.6033 -45.5146 -45.4778 -45.3834  10.5022  15.1229  15.9588  16.0862
    16.4857  16.9961  35.6721  37.8762  41.5454

     occupation numbers 
     1.0000   1.0000   1.0000   1.0000   1.0000   1.0000   1.0000   1.0000
     1.0000   1.0423   0.0000   0.0000   0.0000

          k =-0.2500 0.4500-0.1500 (   315 PWs)   bands (ev):

   -85.5931 -45.5213 -45.4507 -45.4182  11.9353  14.9841  15.7466  16.0956
    16.9304  17.3688  30.8219  37.0592  40.0523

     occupation numbers 
     1.0000   1.0000   1.0000   1.0000   1.0000   1.0000   1.0000   1.0000
     1.0237   0.8455   0.0000   0.0000   0.0000

          k =-0.3500 0.5500-0.2500 (   316 PWs)   bands (ev):

   -85.5844 -45.5782 -45.4623 -45.3916  13.1484  15.2449  15.5893  15.9873
    17.3907  18.1325  26.5493  36.8005  38.4856

     occupation numbers 
     1.0000   1.0000   1.0000   1.0000   1.0000   1.0000   1.0000   1.0000
     0.7929   0.0001   0.0000   0.0000   0.0000

          k = 0.5500-0.3500 0.6500 (   317 PWs)   bands (ev):

   -85.5802 -45.5571 -45.4902 -45.4135  13.5314  15.2813  15.8833  15.9608
    17.4352  19.3974  23.8439  36.4100  38.0762

     occupation numbers 
     1.0000   1.0000   1.0000   1.0000   1.0000   1.0000   1.0000   1.0000
     0.6759   0.0000   0.0000   0.0000   0.0000

          k = 0.4500-0.2500 0.5500 (   314 PWs)   bands (ev):

   -85.5817 -45.5393 -45.4371 -45.3822  13.3716  15.3913  15.6801  15.9401
    17.3162  18.6916  25.3964  35.7841  39.1984

     occupation numbers 
     1.0000   1.0000   1.0000   1.0000   1.0000   1.0000   1.0000   1.0000
     0.9532   0.0000   0.0000   0.0000   0.0000

          k = 0.3500-0.1500 0.4500 (   314 PWs)   bands (ev):

   -85.5897 -45.5338 -45.4529 -45.3764  12.4326  15.0949  15.6262  16.0631
    16.9432  17.7030  29.3252  35.6960  40.9775

     occupation numbers 
     1.0000   1.0000   1.0000   1.0000   1.0000   1.0000   1.0000   1.0000
     1.0268   0.1016   0.0000   0.0000   0.0000

          k = 0.2500-0.0500 0.3500 (   314 PWs)   bands (ev):

   -85.6000 -45.5050 -45.4435 -45.4032  10.9488  15.1258  15.8398  16.0949
    16.5116  17.2018  34.0140  36.2853  43.1008

     occupation numbers 
     1.0000   1.0000   1.0000   1.0000   1.0000   1.0000   1.0000   1.0000
     1.0000   1.0739   0.0000   0.0000   0.0000

          k = 0.1500 0.0500 0.2500 (   315 PWs)   bands (ev):

   -85.6088 -45.4999 -45.4536 -45.3998   9.8026  15.3730  15.8622  15.9130
    16.5413  16.8489  37.1014  39.4078  42.8979

     occupation numbers 
     1.0000   1.0000   1.0000   1.0000   1.0000   1.0000   1.0000   1.0000
     1.0001   1.0095   0.0000   0.0000   0.0000

          k =-0.0500 0.4500 0.0500 (   309 PWs)   bands (ev):

   -85.5962 -45.4234 -45.4234 -45.3405  11.1704  14.8706  16.1194  16.4173
    16.5665  17.0916  36.1107  37.5479  38.5840

     occupation numbers 
     1.0000   1.0000   1.0000   1.0000   1.0000   1.0000   1.0000   1.0000
     1.0001   1.0738   0.0000   0.0000   0.0000

          k =-0.1500 0.5500-0.0500 (   316 PWs)   bands (ev):

   -85.5905 -45.5686 -45.4664 -45.4335  12.2673  14.6044  15.8217  16.6146
    16.9376  17.3476  33.1128  35.0674  36.8888

     occupation numbers 
     1.0000   1.0000   1.0000   1.0000   1.0000   1.0000   1.0000   1.0002
     1.0254   0.8926   0.0000   0.0000   0.0000

          k =-0.2500 0.6500-0.1500 (   320 PWs)   bands (ev):

   -85.5837 -45.6232 -45.5126 -45.4820  13.3760  14.5561  15.5441  16.4884
    17.3881  18.4287  28.6147  34.1956  35.1900

     occupation numbers 
     1.0000   1.0000   1.0000   1.0000   1.0000   1.0000   1.0000   1.0000
     0.7993   0.0000   0.0000   0.0000   0.0000

          k = 0.6500-0.2500 0.7500 (   315 PWs)   bands (ev):

   -85.5768 -45.5191 -45.4652 -45.4416  13.9685  14.7180  15.5018  16.3982
    17.4853  20.5738  24.9016  32.6691  35.4923

     occupation numbers 
     1.0000   1.0000   1.0000   1.0000   1.0000   1.0000   1.0000   1.0000
     0.5376   0.0000   0.0000   0.0000   0.0000

          k = 0.5500-0.1500 0.6500 (   312 PWs)   bands (ev):

   -85.5757 -45.4623 -45.4278 -45.4057  14.0897  14.8540  15.4269  16.3220
    17.3023  20.7674  24.9226  31.5717  36.7852

     occupation numbers 
     1.0000   1.0000   1.0000   1.0000   1.0000   1.0000   1.0000   1.0000
     0.9764   0.0000   0.0000   0.0000   0.0000

          k = 0.4500-0.0500 0.5500 (   317 PWs)   bands (ev):

   -85.5831 -45.5689 -45.4996 -45.4158  13.5717  14.9534  15.2100  16.3666
    16.8587  18.8825  28.5891  31.2180  38.7143

     occupation numbers 
     1.0000   1.0000   1.0000   1.0000   1.0000   1.0000   1.0000   1.0000
     1.0107   0.0000   0.0000   0.0000   0.0000

          k = 0.3500 0.0500 0.4500 (   316 PWs)   bands (ev):

   -85.5913 -45.5446 -45.4935 -45.4064  12.3253  14.9612  15.5949  16.2980
    16.5965  17.7568  31.1518  33.5036  41.0203

     occupation numbers 
     1.0000   1.0000   1.0000   1.0000   1.0000   1.0000   1.0000   1.0000
     1.0002   0.0563   0.0000   0.0000   0.0000

          k = 0.2500 0.1500 0.3500 (   313 PWs)   bands (ev):

   -85.5981 -45.4882 -45.4467 -45.3754  11.1485  15.1548  15.8243  15.9837
    16.7734  17.1555  32.1804  38.4276  41.9526

     occupation numbers 
     1.0000   1.0000   1.0000   1.0000   1.0000   1.0000   1.0000   1.0000
     1.0034   1.0833   0.0000   0.0000   0.0000

          k =-0.0500 0.6500 0.0500 (   317 PWs)   bands (ev):

   -85.5854 -45.6148 -45.4947 -45.4379  12.8180  14.3004  16.3419  16.9768
    17.1950  17.2794  33.3694  33.9467  34.6591

     occupation numbers 
     1.0000   1.0000   1.0000   1.0000   1.0000   1.0000   1.0000   1.0362
     1.0764   1.0092   0.0000   0.0000   0.0000

          k =-0.1500 0.7500-0.0500 (   320 PWs)   bands (ev):

   -85.5799 -45.6262 -45.5474 -45.4813  13.3470  14.1527  16.3486  17.0928
    17.3826  18.5386  30.8743  31.5188  33.1613

     occupation numbers 
     1.0000   1.0000   1.0000   1.0000   1.0000   1.0000   1.0000   1.0741
     0.8128   0.0000   0.0000   0.0000   0.0000

          k = 0.7500-0.1500 0.8500 (   314 PWs)   bands (ev):

   -85.5731 -45.5195 -45.4683 -45.4188  13.8103  14.2563  16.0346  16.9536
    17.5663  21.0520  27.1295  29.4811  33.4237

     occupation numbers 
     1.0000   1.0000   1.0000   1.0000   1.0000   1.0000   1.0000   1.0296
     0.3300   0.0000   0.0000   0.0000   0.0000

          k = 0.6500-0.0500 0.7500 (   314 PWs)   bands (ev):

   -85.5721 -45.5210 -45.4553 -45.3943  14.2292  14.4482  15.5574  16.7542
    17.4180  23.3453  24.3731  28.4228  34.6497

     occupation numbers 
     1.0000   1.0000   1.0000   1.0000   1.0000   1.0000   1.0000   1.0025
     0.7221   0.0000   0.0000   0.0000   0.0000

          k = 0.5500 0.0500 0.6500 (   316 PWs)   bands (ev):

   -85.5762 -45.5522 -45.4893 -45.3874  14.2831  14.7279  15.1519  16.5182
    17.1223  20.8779  26.2793  29.5059  36.5600

     occupation numbers 
     1.0000   1.0000   1.0000   1.0000   1.0000   1.0000   1.0000   1.0000
     1.0807   0.0000   0.0000   0.0000   0.0000

          k = 0.4500 0.1500 0.5500 (   315 PWs)   bands (ev):

   -85.5823 -45.5486 -45.4681 -45.3926  13.4972  15.1316  15.3592  16.1604
    17.0943  18.8482  26.8717  33.3843  38.8760

     occupation numbers 
     1.0000   1.0000   1.0000   1.0000   1.0000   1.0000   1.0000   1.0000
     1.0745   0.0000   0.0000   0.0000   0.0000

          k = 0.3500 0.2500 0.4500 (   315 PWs)   bands (ev):

   -85.5882 -45.5598 -45.4398 -45.3808  12.5951  15.3627  15.6512  15.8681
    17.2486  17.5696  27.6708  38.0042  40.7657

     occupation numbers 
     1.0000   1.0000   1.0000   1.0000   1.0000   1.0000   1.0000   1.0000
     1.0433   0.3223   0.0000   0.0000   0.0000

          k =-0.0500 0.8500 0.0500 (   322 PWs)   bands (ev):

   -85.5767 -45.6380 -45.5511 -45.5499  13.2865  13.9219  17.2688  17.3281
    17.5275  18.9677  28.7717  32.0333  32.8195

     occupation numbers 
     1.0000   1.0000   1.0000   1.0000   1.0000   1.0000   1.0222   0.9315
     0.4248   0.0000   0.0000   0.0000   0.0000

          k = 0.8500-0.0500 0.9500 (   317 PWs)   bands (ev):

   -85.5723 -45.5429 -45.5238 -45.4736  13.4625  13.9349  16.9511  17.3129
    17.6849  20.7604  27.3661  30.2631  32.0808

     occupation numbers 
     1.0000   1.0000   1.0000   1.0000   1.0000   1.0000   1.0289   0.9589
     0.1219   0.0000   0.0000   0.0000   0.0000

          k = 0.7500 0.0500 0.8500 (   317 PWs)   bands (ev):

   -85.5721 -45.5160 -45.5090 -45.4809  13.7966  14.1678  16.1817  17.0487
    17.5735  22.2608  26.5942  27.9751  33.0917

     occupation numbers 
     1.0000   1.0000   1.0000   1.0000   1.0000   1.0000   1.0000   1.0603
     0.3135   0.0000   0.0000   0.0000   0.0000

          k = 0.6500 0.1500 0.7500 (   313 PWs)   bands (ev):

   -85.5734 -45.4724 -45.4496 -45.4241  14.1898  14.5364  15.5239  16.6052
    17.4639  22.1463  24.4390  30.2711  34.9269

     occupation numbers 
     1.0000   1.0000   1.0000   1.0000   1.0000   1.0000   1.0000   1.0002
     0.5967   0.0000   0.0000   0.0000   0.0000

          k = 0.5500 0.2500 0.6500 (   314 PWs)   bands (ev):

   -85.5777 -45.5175 -45.4525 -45.3999  13.8064  15.0566  15.7021  16.0835
    17.3879  20.3232  23.9754  34.0004  37.2467

     occupation numbers 
     1.0000   1.0000   1.0000   1.0000   1.0000   1.0000   1.0000   1.0000
     0.7998   0.0000   0.0000   0.0000   0.0000

          k = 0.4500 0.3500 0.5500 (   319 PWs)   bands (ev):

   -85.5828 -45.5420 -45.5107 -45.4644  13.2728  15.4920  15.7379  16.1754
    17.4154  18.3684  24.3160  38.0243  39.8311

     occupation numbers 
     1.0000   1.0000   1.0000   1.0000   1.0000   1.0000   1.0000   1.0000
     0.7292   0.0000   0.0000   0.0000   0.0000

          k =-0.0500-0.9500 0.0500 (   314 PWs)   bands (ev):

   -85.5711 -45.5149 -45.5134 -45.4052  13.3582  13.8484  17.4179  17.5357
    17.7168  20.0267  27.3573  31.6516  32.4263

     occupation numbers 
     1.0000   1.0000   1.0000   1.0000   1.0000   1.0000   0.7225   0.4039
     0.0879   0.0000   0.0000   0.0000   0.0000

          k =-0.1500-0.8500-0.0500 (   319 PWs)   bands (ev):

   -85.5752 -45.5766 -45.5443 -45.4932  13.4444  14.0100  16.7239  17.2568
    17.5330  19.7401  28.8695  30.6330  32.4443

     occupation numbers 
     1.0000   1.0000   1.0000   1.0000   1.0000   1.0000   1.0016   1.0354
     0.4108   0.0000   0.0000   0.0000   0.0000

          k =-0.2500-0.7500-0.1500 (   316 PWs)   bands (ev):

   -85.5772 -45.5360 -45.4999 -45.4379  13.7336  14.3796  15.7511  16.7518
    17.4930  19.6348  27.7840  31.7845  34.0781

     occupation numbers 
     1.0000   1.0000   1.0000   1.0000   1.0000   1.0000   1.0000   1.0024
     0.5165   0.0000   0.0000   0.0000   0.0000

          k =-0.3500-0.6500-0.2500 (   316 PWs)   bands (ev):

   -85.5805 -45.5472 -45.4655 -45.4403  13.6330  14.9776  15.5120  16.1743
    17.4694  19.1764  25.6386  35.1335  36.4544

     occupation numbers 
     1.0000   1.0000   1.0000   1.0000   1.0000   1.0000   1.0000   1.0000
     0.5815   0.0000   0.0000   0.0000   0.0000

          k =-0.0500-0.7500 0.0500 (   322 PWs)   bands (ev):

   -85.5813 -45.6398 -45.5521 -45.5518  13.1875  14.0766  16.8634  17.1443
    17.3935  17.8559  31.0024  32.7520  33.5754

     occupation numbers 
     1.0000   1.0000   1.0000   1.0000   1.0000   1.0000   1.0113   1.0831
     0.7859   0.0156   0.0000   0.0000   0.0000

          k =-0.1500-0.6500-0.0500 (   317 PWs)   bands (ev):

   -85.5845 -45.6206 -45.4906 -45.4219  12.9917  14.3612  15.9748  16.9175
    17.1954  17.7345  32.0140  33.5923  34.4404

     occupation numbers 
     1.0000   1.0000   1.0000   1.0000   1.0000   1.0000   1.0000   1.0208
     1.0763   0.0725   0.0000   0.0000   0.0000

          k =-0.2500-0.5500-0.1500 (   318 PWs)   bands (ev):

   -85.5885 -45.5896 -45.4826 -45.4537  12.7389  14.7811  15.5738  16.2727
    17.1838  17.7294  29.6338  35.7629  37.4917

     occupation numbers 
     1.0000   1.0000   1.0000   1.0000   1.0000   1.0000   1.0000   1.0000
     1.0797   0.0767   0.0000   0.0000   0.0000

          k =-0.0500-0.5500 0.0500 (   311 PWs)   bands (ev):

   -85.5902 -45.4493 -45.4352 -45.4261  12.0856  14.5713  16.0521  16.7076
    16.8681  17.2270  34.7917  36.0040  36.3624

     occupation numbers 
     1.0000   1.0000   1.0000   1.0000   1.0000   1.0000   1.0000   1.0012
     1.0120   1.0604   0.0000   0.0000   0.0000

          k =-0.1500-0.4500-0.0500 (   313 PWs)   bands (ev):

   -85.5961 -45.5085 -45.4570 -45.3608  11.3641  14.8673  15.9525  16.3396
    16.6222  17.1897  34.3384  36.4351  39.5513

     occupation numbers 
     1.0000   1.0000   1.0000   1.0000   1.0000   1.0000   1.0000   1.0000
     1.0003   1.0781   0.0000   0.0000   0.0000

          k =-0.0500-0.3500 0.0500 (   312 PWs)   bands (ev):

   -85.6038 -45.4942 -45.3831 -45.3771  10.2822  15.1542  16.0785  16.1828
    16.3719  16.9415  37.4545  39.2691  39.8381

     occupation numbers 
     1.0000   1.0000   1.0000   1.0000   1.0000   1.0000   1.0000   1.0000
     1.0000   1.0264   0.0000   0.0000   0.0000

          k =-0.1500 0.1500 0.1500 (   320 PWs)   bands (ev):

   -85.6124 -45.5292 -45.5292 -45.4596   9.5477  15.4376  15.7579  15.7579
    16.6890  16.6890  36.9559  42.0315  43.5641

     occupation numbers 
     1.0000   1.0000   1.0000   1.0000   1.0000   1.0000   1.0000   1.0000
     1.0009   1.0009   0.0000   0.0000   0.0000

          k =-0.2500 0.2500 0.0500 (   317 PWs)   bands (ev):

   -85.6061 -45.5217 -45.4870 -45.4379  10.2695  15.2859  15.8623  15.9106
    16.5118  16.9460  35.4913  37.7777  44.2775

     occupation numbers 
     1.0000   1.0000   1.0000   1.0000   1.0000   1.0000   1.0000   1.0000
     1.0000   1.0275   0.0000   0.0000   0.0000

          k =-0.3500 0.3500-0.0500 (   315 PWs)   bands (ev):

   -85.5959 -45.5194 -45.4605 -45.4119  11.5758  15.0690  15.7416  16.1590
    16.5076  17.4473  32.5040  34.8118  43.6070

     occupation numbers 
     1.0000   1.0000   1.0000   1.0000   1.0000   1.0000   1.0000   1.0000
     1.0000   0.6425   0.0000   0.0000   0.0000

          k =-0.4500 0.4500-0.1500 (   317 PWs)   bands (ev):

   -85.5870 -45.5746 -45.4844 -45.4156  12.9715  15.1541  15.5032  16.0398
    16.9346  18.1563  27.9992  34.4526  41.6512

     occupation numbers 
     1.0000   1.0000   1.0000   1.0000   1.0000   1.0000   1.0000   1.0000
     1.0247   0.0001   0.0000   0.0000   0.0000

          k = 0.4500-0.4500 0.7500 (   314 PWs)   bands (ev):

   -85.5794 -45.4923 -45.4407 -45.4219  13.5927  15.2872  15.7620  15.9671
    17.3264  19.4219  24.5121  34.8175  39.6794

     occupation numbers 
     1.0000   1.0000   1.0000   1.0000   1.0000   1.0000   1.0000   1.0000
     0.9348   0.0000   0.0000   0.0000   0.0000

          k = 0.3500-0.3500 0.6500 (   317 PWs)   bands (ev):

   -85.5805 -45.5469 -45.5153 -45.4096  13.5450  15.1637  15.7748  15.9558
    17.4947  19.3246  24.4767  35.8233  38.2617

     occupation numbers 
     1.0000   1.0000   1.0000   1.0000   1.0000   1.0000   1.0000   1.0000
     0.5118   0.0000   0.0000   0.0000   0.0000

          k = 0.2500-0.2500 0.5500 (   318 PWs)   bands (ev):

   -85.5870 -45.5731 -45.4861 -45.4568  12.9223  14.9677  15.5636  16.0640
    17.4611  17.7653  27.9857  37.3007  37.7531

     occupation numbers 
     1.0000   1.0000   1.0000   1.0000   1.0000   1.0000   1.0000   1.0000
     0.6045   0.0509   0.0000   0.0000   0.0000

          k = 0.1500-0.1500 0.4500 (   313 PWs)   bands (ev):

   -85.5946 -45.5157 -45.4728 -45.3286  11.5581  14.8976  15.8989  16.1669
    16.8843  17.2009  32.5209  38.1243  38.8020

     occupation numbers 
     1.0000   1.0000   1.0000   1.0000   1.0000   1.0000   1.0000   1.0000
     1.0144   1.0743   0.0000   0.0000   0.0000

          k =-0.1500 0.3500 0.1500 (   313 PWs)   bands (ev):

   -85.6011 -45.4863 -45.4583 -45.3613  10.7225  15.1403  15.8969  16.0035
    16.7058  17.0327  33.8641  39.8306  40.1066

     occupation numbers 
     1.0000   1.0000   1.0000   1.0000   1.0000   1.0000   1.0000   1.0000
     1.0012   1.0547   0.0000   0.0000   0.0000

          k =-0.2500 0.4500 0.0500 (   314 PWs)   bands (ev):

   -85.5940 -45.5000 -45.4794 -45.3882  11.7758  14.9183  15.7408  16.3327
    16.6444  17.4189  32.6665  34.9169  40.3311

     occupation numbers 
     1.0000   1.0000   1.0000   1.0000   1.0000   1.0000   1.0000   1.0000
     1.0004   0.7199   0.0000   0.0000   0.0000

          k =-0.3500 0.5500-0.0500 (   317 PWs)   bands (ev):

   -85.5863 -45.5756 -45.4986 -45.4224  13.0884  14.8091  15.3671  16.4655
    16.8426  18.2574  29.9533  32.3803  37.9747

     occupation numbers 
     1.0000   1.0000   1.0000   1.0000   1.0000   1.0000   1.0000   1.0000
     1.0087   0.0000   0.0000   0.0000   0.0000

          k = 0.5500-0.3500 0.8500 (   316 PWs)   bands (ev):

   -85.5789 -45.5562 -45.4623 -45.4292  13.9135  14.9044  15.2914  16.3240
    17.2697  19.8369  25.9201  32.4984  35.9812

     occupation numbers 
     1.0000   1.0000   1.0000   1.0000   1.0000   1.0000   1.0000   1.0000
     1.0213   0.0000   0.0000   0.0000   0.0000

          k = 0.4500-0.2500 0.7500 (   311 PWs)   bands (ev):

   -85.5754 -45.4778 -45.4061 -45.3952  14.0490  14.8409  15.5171  16.3040
    17.4503  21.0326  24.1374  33.2649  34.7132

     occupation numbers 
     1.0000   1.0000   1.0000   1.0000   1.0000   1.0000   1.0000   1.0000
     0.6344   0.0000   0.0000   0.0000   0.0000

          k = 0.3500-0.1500 0.6500 (   315 PWs)   bands (ev):

   -85.5803 -45.5605 -45.4556 -45.4082  13.6791  14.7885  15.3364  16.4332
    17.3423  19.0927  27.1855  33.5299  35.3266

     occupation numbers 
     1.0000   1.0000   1.0000   1.0000   1.0000   1.0000   1.0000   1.0000
     0.9035   0.0000   0.0000   0.0000   0.0000

          k = 0.2500-0.0500 0.5500 (   315 PWs)   bands (ev):

   -85.5883 -45.5465 -45.4632 -45.4189  12.6307  14.6949  15.5718  16.5768
    16.8952  17.7810  31.4679  33.7049  37.3821

     occupation numbers 
     1.0000   1.0000   1.0000   1.0000   1.0000   1.0000   1.0000   1.0001
     1.0163   0.0421   0.0000   0.0000   0.0000

          k =-0.1500 0.5500 0.1500 (   320 PWs)   bands (ev):

   -85.5909 -45.6141 -45.4976 -45.4907  12.4323  14.6535  15.7160  16.3933
    17.2315  17.2729  31.2926  36.5975  36.6867

     occupation numbers 
     1.0000   1.0000   1.0000   1.0000   1.0000   1.0000   1.0000   1.0000
     1.0573   1.0174   0.0000   0.0000   0.0000

          k =-0.2500 0.6500 0.0500 (   317 PWs)   bands (ev):

   -85.5830 -45.6054 -45.4852 -45.4240  13.3050  14.4832  15.5601  16.8344
    17.1527  18.3463  30.4295  32.6125  34.5673

     occupation numbers 
     1.0000   1.0000   1.0000   1.0000   1.0000   1.0000   1.0000   1.0079
     1.0833   0.0000   0.0000   0.0000   0.0000

          k = 0.6500-0.2500 0.9500 (   313 PWs)   bands (ev):

   -85.5753 -45.5111 -45.4757 -45.3686  14.0069  14.5499  15.3274  16.8833
    17.3425  20.2769  28.0932  30.6121  32.4059

     occupation numbers 
     1.0000   1.0000   1.0000   1.0000   1.0000   1.0000   1.0000   1.0143
     0.9031   0.0000   0.0000   0.0000   0.0000

          k = 0.5500-0.1500 0.8500 (   315 PWs)   bands (ev):

   -85.5732 -45.5256 -45.4939 -45.4023  14.3706  14.5762  15.2265  16.6354
    17.4661  22.7508  24.6907  30.3884  31.7036

     occupation numbers 
     1.0000   1.0000   1.0000   1.0000   1.0000   1.0000   1.0000   1.0003
     0.5906   0.0000   0.0000   0.0000   0.0000

          k = 0.4500-0.0500 0.7500 (   315 PWs)   bands (ev):

   -85.5748 -45.4959 -45.4928 -45.4297  14.3170  14.7390  14.9857  16.6759
    17.3339  21.1896  26.7068  29.7020  33.0165

     occupation numbers 
     1.0000   1.0000   1.0000   1.0000   1.0000   1.0000   1.0000   1.0007
     0.9205   0.0000   0.0000   0.0000   0.0000

          k = 0.3500 0.0500 0.6500 (   317 PWs)   bands (ev):

   -85.5811 -45.5931 -45.4922 -45.4132  13.7024  14.6655  15.2211  16.7001
    17.1029  19.0321  28.9302  31.4254  35.0597

     occupation numbers 
     1.0000   1.0000   1.0000   1.0000   1.0000   1.0000   1.0000   1.0011
     1.0767   0.0000   0.0000   0.0000   0.0000

          k =-0.1500 0.7500 0.1500 (   317 PWs)   bands (ev):

   -85.5783 -45.6138 -45.5004 -45.4162  13.4866  14.2368  16.1362  16.9063
    17.5113  18.9527  29.3761  31.4903  34.2801

     occupation numbers 
     1.0000   1.0000   1.0000   1.0000   1.0000   1.0000   1.0000   1.0184
     0.4672   0.0000   0.0000   0.0000   0.0000

          k = 0.7500-0.1500 1.0500 (   316 PWs)   bands (ev):

   -85.5736 -45.5433 -45.4837 -45.4555  13.7013  14.1817  16.1362  17.1099
    17.5500  20.6905  28.7592  29.4225  31.4852

     occupation numbers 
     1.0000   1.0000   1.0000   1.0000   1.0000   1.0000   1.0000   1.0783
     0.3684   0.0000   0.0000   0.0000   0.0000

          k = 0.6500-0.0500 0.9500 (   313 PWs)   bands (ev):

   -85.5703 -45.5267 -45.5012 -45.3212  13.9612  14.4011  15.7277  17.0181
    17.6754  23.0222  27.0112  27.9233  30.1902

     occupation numbers 
     1.0000   1.0000   1.0000   1.0000   1.0000   1.0000   1.0000   1.0497
     0.1338   0.0000   0.0000   0.0000   0.0000

          k = 0.5500 0.0500 0.8500 (   314 PWs)   bands (ev):

   -85.5716 -45.4906 -45.4560 -45.4351  14.2680  14.6507  15.2073  16.7271
    17.5927  23.8258  24.8285  28.5668  31.3448

     occupation numbers 
     1.0000   1.0000   1.0000   1.0000   1.0000   1.0000   1.0000   1.0017
     0.2722   0.0000   0.0000   0.0000   0.0000

          k = 0.4500 0.1500 0.7500 (   315 PWs)   bands (ev):

   -85.5754 -45.4935 -45.4696 -45.4478  14.2419  14.6596  15.2399  16.4988
    17.4125  21.2323  25.1674  31.7293  33.3224

     occupation numbers 
     1.0000   1.0000   1.0000   1.0000   1.0000   1.0000   1.0000   1.0000
     0.7368   0.0000   0.0000   0.0000   0.0000

          k =-0.1500-1.0500 0.1500 (   316 PWs)   bands (ev):

   -85.5720 -45.5451 -45.4978 -45.4558  13.5807  14.0187  16.6609  17.1962
    17.6590  21.3401  27.3181  28.6915  33.1902

     occupation numbers 
     1.0000   1.0000   1.0000   1.0000   1.0000   1.0000   1.0005   1.0760
     0.1561   0.0000   0.0000   0.0000   0.0000

          k =-0.2500-0.9500 0.0500 (   315 PWs)   bands (ev):

   -85.5713 -45.5114 -45.4868 -45.4499  13.7001  14.1169  16.3370  17.1399
    17.7063  21.8107  27.4486  28.7915  31.1519

     occupation numbers 
     1.0000   1.0000   1.0000   1.0000   1.0000   1.0000   1.0000   1.0828
     0.0982   0.0000   0.0000   0.0000   0.0000

          k =-0.3500-0.8500-0.0500 (   314 PWs)   bands (ev):

   -85.5724 -45.5229 -45.5028 -45.3631  14.0162  14.4482  15.5753  16.9487
    17.5310  21.6832  27.4713  29.4365  30.6390

     occupation numbers 
     1.0000   1.0000   1.0000   1.0000   1.0000   1.0000   1.0000   1.0282
     0.4159   0.0000   0.0000   0.0000   0.0000

          k =-0.1500-0.8500 0.1500 (   318 PWs)   bands (ev):

   -85.5747 -45.5540 -45.5261 -45.4854  13.5691  14.0859  16.4672  17.0821
    17.5631  20.2493  28.5268  29.3954  33.5598

     occupation numbers 
     1.0000   1.0000   1.0000   1.0000   1.0000   1.0000   1.0000   1.0711
     0.3373   0.0000   0.0000   0.0000   0.0000

          k =-0.2500-0.7500 0.0500 (   319 PWs)   bands (ev):

   -85.5784 -45.6098 -45.5304 -45.4500  13.6278  14.3018  15.8120  16.9960
    17.3359  19.3305  29.5688  31.3159  32.3518

     occupation numbers 
     1.0000   1.0000   1.0000   1.0000   1.0000   1.0000   1.0000   1.0423
     0.9165   0.0000   0.0000   0.0000   0.0000

          k =-0.1500-0.6500 0.1500 (   318 PWs)   bands (ev):

   -85.5841 -45.6267 -45.4963 -45.4360  13.1308  14.4259  15.8216  16.6465
    17.4142  17.9426  30.2534  34.0691  35.3073

     occupation numbers 
     1.0000   1.0000   1.0000   1.0000   1.0000   1.0000   1.0000   1.0004
     0.7323   0.0041   0.0000   0.0000   0.0000

          k =-0.2500 0.2500 0.2500 (   311 PWs)   bands (ev):

   -85.5993 -45.4418 -45.3994 -45.3994  10.9306  15.2738  15.8820  15.8820
    16.9291  16.9291  32.0091  41.2513  42.7153

     occupation numbers 
     1.0000   1.0000   1.0000   1.0000   1.0000   1.0000   1.0000   1.0000
     1.0234   1.0234   0.0000   0.0000   0.0000

          k =-0.3500 0.3500 0.1500 (   311 PWs)   bands (ev):

   -85.5935 -45.4536 -45.4177 -45.3760  11.7418  15.1638  15.7734  15.9829
    16.8377  17.4197  30.6771  36.9945  42.7895

     occupation numbers 
     1.0000   1.0000   1.0000   1.0000   1.0000   1.0000   1.0000   1.0000
     1.0082   0.7176   0.0000   0.0000   0.0000

          k =-0.4500 0.4500 0.0500 (   315 PWs)   bands (ev):

   -85.5868 -45.5542 -45.4562 -45.4019  12.9626  14.9935  15.4429  16.2753
    16.6994  18.2421  29.7976  32.2669  41.7214

     occupation numbers 
     1.0000   1.0000   1.0000   1.0000   1.0000   1.0000   1.0000   1.0000
     1.0010   0.0000   0.0000   0.0000   0.0000

          k = 0.4500-0.4500 0.9500 (   313 PWs)   bands (ev):

   -85.5783 -45.5064 -45.4529 -45.3666  14.0010  15.0013  15.1123  16.4284
    16.9819  19.7499  27.3626  30.2732  38.9994

     occupation numbers 
     1.0000   1.0000   1.0000   1.0000   1.0000   1.0000   1.0000   1.0000
     1.0378   0.0000   0.0000   0.0000   0.0000

          k = 0.3500-0.3500 0.8500 (   311 PWs)   bands (ev):

   -85.5740 -45.4569 -45.4288 -45.3846  14.1847  14.7000  15.4856  16.4285
    17.4233  21.6798  24.2472  30.8319  36.8810

     occupation numbers 
     1.0000   1.0000   1.0000   1.0000   1.0000   1.0000   1.0000   1.0000
     0.7082   0.0000   0.0000   0.0000   0.0000

          k = 0.2500-0.2500 0.7500 (   315 PWs)   bands (ev):

   -85.5770 -45.5243 -45.4755 -45.4358  13.8568  14.5316  15.6172  16.5460
    17.5329  20.0766  26.1845  32.1553  35.6032

     occupation numbers 
     1.0000   1.0000   1.0000   1.0000   1.0000   1.0000   1.0000   1.0001
     0.4109   0.0000   0.0000   0.0000   0.0000

          k =-0.2500 0.4500 0.2500 (   318 PWs)   bands (ev):

   -85.5918 -45.5400 -45.4734 -45.4603  12.2184  15.1343  15.6975  15.9235
    17.1784  17.3095  29.1415  39.1885  39.2041

     occupation numbers 
     1.0000   1.0000   1.0000   1.0000   1.0000   1.0000   1.0000   1.0000
     1.0809   0.9646   0.0000   0.0000   0.0000

          k =-0.3500 0.5500 0.1500 (   316 PWs)   bands (ev):

   -85.5855 -45.5777 -45.4648 -45.4103  13.1174  14.9670  15.4337  16.2191
    17.1344  18.2123  28.1630  34.5518  38.1237

     occupation numbers 
     1.0000   1.0000   1.0000   1.0000   1.0000   1.0000   1.0000   1.0000
     1.0823   0.0000   0.0000   0.0000   0.0000

          k = 0.5500-0.3500 1.0500 (   317 PWs)   bands (ev):

   -85.5789 -45.5291 -45.5152 -45.4389  14.0645  14.8492  15.0136  16.5168
    17.0861  19.8719  27.5523  30.3674  35.7678

     occupation numbers 
     1.0000   1.0000   1.0000   1.0000   1.0000   1.0000   1.0000   1.0000
     1.0723   0.0000   0.0000   0.0000   0.0000

          k = 0.4500-0.2500 0.9500 (   315 PWs)   bands (ev):

   -85.5736 -45.5145 -45.4685 -45.4249  14.4691  14.5136  15.1821  16.6368
    17.3730  22.2418  25.4118  28.9587  33.8466

     occupation numbers 
     1.0000   1.0000   1.0000   1.0000   1.0000   1.0000   1.0000   1.0003
     0.8359   0.0000   0.0000   0.0000   0.0000

          k = 0.3500-0.1500 0.8500 (   314 PWs)   bands (ev):

   -85.5728 -45.5133 -45.4914 -45.3805  14.1014  14.4404  15.5595  16.8246
    17.5035  21.9162  25.7672  29.8821  32.5501

     occupation numbers 
     1.0000   1.0000   1.0000   1.0000   1.0000   1.0000   1.0000   1.0069
     0.4880   0.0000   0.0000   0.0000   0.0000

          k =-0.2500 0.6500 0.2500 (   318 PWs)   bands (ev):

   -85.5823 -45.6172 -45.4743 -45.4472  13.5082  14.7439  15.5163  16.3093
    17.4964  18.7048  26.9900  34.7571  36.5422

     occupation numbers 
     1.0000   1.0000   1.0000   1.0000   1.0000   1.0000   1.0000   1.0000
     0.5073   0.0000   0.0000   0.0000   0.0000

          k = 0.6500-0.2500 1.1500 (   315 PWs)   bands (ev):

   -85.5760 -45.5123 -45.4975 -45.4082  14.0104  14.5750  15.3916  16.6324
    17.4487  20.3950  26.3748  32.1119  33.2760

     occupation numbers 
     1.0000   1.0000   1.0000   1.0000   1.0000   1.0000   1.0000   1.0003
     0.6386   0.0000   0.0000   0.0000   0.0000

          k = 0.5500-0.1500 1.0500 (   314 PWs)   bands (ev):

   -85.5720 -45.5097 -45.4605 -45.4135  14.2653  14.7482  15.0881  16.7342
    17.5546  22.7836  26.0741  29.1122  30.6616

     occupation numbers 
     1.0000   1.0000   1.0000   1.0000   1.0000   1.0000   1.0000   1.0018
     0.3574   0.0000   0.0000   0.0000   0.0000

          k = 0.4500-0.0500 0.9500 (   315 PWs)   bands (ev):

   -85.5711 -45.5171 -45.4969 -45.4094  14.1562  14.7433  15.2058  16.7426
    17.6804  24.2945  25.7031  28.0555  29.5332

     occupation numbers 
     1.0000   1.0000   1.0000   1.0000   1.0000   1.0000   1.0000   1.0021
     0.1274   0.0000   0.0000   0.0000   0.0000

          k =-0.2500-1.1500 0.2500 (   313 PWs)   bands (ev):

   -85.5730 -45.4840 -45.4680 -45.4045  13.9916  14.3744  15.8182  16.7750
    17.5261  21.6208  25.5690  29.7875  34.9569

     occupation numbers 
     1.0000   1.0000   1.0000   1.0000   1.0000   1.0000   1.0000   1.0035
     0.4282   0.0000   0.0000   0.0000   0.0000

          k =-0.3500-1.0500 0.1500 (   313 PWs)   bands (ev):

   -85.5708 -45.4984 -45.4691 -45.3729  14.0722  14.4060  15.6952  16.9011
    17.5753  23.3803  25.3042  28.1500  32.2573

     occupation numbers 
     1.0000   1.0000   1.0000   1.0000   1.0000   1.0000   1.0000   1.0174
     0.3096   0.0000   0.0000   0.0000   0.0000

          k =-0.2500-0.9500 0.2500 (   315 PWs)   bands (ev):

   -85.5717 -45.5502 -45.4848 -45.3775  13.9823  14.3325  15.9086  16.9421
    17.4414  23.0385  25.0856  28.0700  34.6275

     occupation numbers 
     1.0000   1.0000   1.0000   1.0000   1.0000   1.0000   1.0000   1.0265
     0.6589   0.0000   0.0000   0.0000   0.0000

          k =-0.3500 0.3500 0.3500 (   308 PWs)   bands (ev):

   -85.5873 -45.4109 -45.3577 -45.3577  12.4041  15.5971  15.7836  15.7836
    17.3538  17.3538  27.5373  40.3249  42.2629

     occupation numbers 
     1.0000   1.0000   1.0000   1.0000   1.0000   1.0000   1.0000   1.0000
     0.8792   0.8792   0.0000   0.0000   0.0000

          k =-0.4500 0.4500 0.2500 (   315 PWs)   bands (ev):

   -85.5851 -45.5847 -45.4123 -45.3901  12.9882  15.5644  15.6334  15.8075
    17.2377  17.9878  26.4262  36.8342  41.3173

     occupation numbers 
     1.0000   1.0000   1.0000   1.0000   1.0000   1.0000   1.0000   1.0000
     1.0526   0.0019   0.0000   0.0000   0.0000

          k = 0.4500-0.4500 1.1500 (   316 PWs)   bands (ev):

   -85.5795 -45.5465 -45.4628 -45.4146  13.8116  15.0763  15.3638  16.1894
    17.1656  19.6391  25.7792  32.3815  39.2250

     occupation numbers 
     1.0000   1.0000   1.0000   1.0000   1.0000   1.0000   1.0000   1.0000
     1.0827   0.0000   0.0000   0.0000   0.0000

          k = 0.3500-0.3500 1.0500 (   317 PWs)   bands (ev):

   -85.5747 -45.5327 -45.4706 -45.4703  14.3377  14.5356  15.3589  16.5884
    17.2245  22.0239  25.1837  28.8631  36.5969

     occupation numbers 
     1.0000   1.0000   1.0000   1.0000   1.0000   1.0000   1.0000   1.0001
     1.0620   0.0000   0.0000   0.0000   0.0000

          k =-0.3500 0.5500 0.3500 (   315 PWs)   bands (ev):

   -85.5829 -45.5360 -45.4611 -45.3890  13.2065  15.4664  15.8438  15.8659
    17.4734  18.1845  25.2616  38.1750  39.3584

     occupation numbers 
     1.0000   1.0000   1.0000   1.0000   1.0000   1.0000   1.0000   1.0000
     0.5704   0.0000   0.0000   0.0000   0.0000

          k = 0.5500-0.3500 1.2500 (   314 PWs)   bands (ev):

   -85.5787 -45.5362 -45.4541 -45.3791  13.7236  15.0946  15.6325  16.1023
    17.4138  19.7320  24.5995  34.8202  36.5126

     occupation numbers 
     1.0000   1.0000   1.0000   1.0000   1.0000   1.0000   1.0000   1.0000
     0.7335   0.0000   0.0000   0.0000   0.0000

          k = 0.4500-0.2500 1.1500 (   313 PWs)   bands (ev):

   -85.5741 -45.4843 -45.4525 -45.4085  14.3239  14.6082  15.3337  16.4940
    17.4238  21.9885  24.3574  30.9306  34.0981

     occupation numbers 
     1.0000   1.0000   1.0000   1.0000   1.0000   1.0000   1.0000   1.0000
     0.7067   0.0000   0.0000   0.0000   0.0000

          k =-0.3500-1.2500 0.3500 (   315 PWs)   bands (ev):

   -85.5773 -45.5009 -45.4678 -45.4441  13.9108  14.9058  15.6038  16.2011
    17.4448  20.6133  24.0436  33.2529  37.4328

     occupation numbers 
     1.0000   1.0000   1.0000   1.0000   1.0000   1.0000   1.0000   1.0000
     0.6494   0.0000   0.0000   0.0000   0.0000

          k =-0.4500 0.4500 0.4500 (   317 PWs)   bands (ev):

   -85.5832 -45.5367 -45.4498 -45.4498  13.1067  15.6536  15.6536  16.8661
    17.4474  17.4474  24.2398  39.7307  42.1245

     occupation numbers 
     1.0000   1.0000   1.0000   1.0000   1.0000   1.0000   1.0000   1.0117
     0.6423   0.6423   0.0000   0.0000   0.0000

          k = 0.4500-0.4500 1.3500 (   318 PWs)   bands (ev):

   -85.5815 -45.5388 -45.4926 -45.4559  13.3773  15.4232  15.7870  16.1881
    17.4309  18.8456  23.7990  37.2684  40.3553

     occupation numbers 
     1.0000   1.0000   1.0000   1.0000   1.0000   1.0000   1.0000   1.0000
     0.6875   0.0000   0.0000   0.0000   0.0000

     the Fermi energy is    17.5370 ev

!    total energy              =    -338.87914561 Ry
     Harris-Foulkes estimate   =    -338.87914561 Ry
     estimated scf accuracy    <          2.1E-09 Ry

     The total energy is the sum of the following terms:

     one-electron contribution =    -186.22139351 Ry
     hartree contribution      =     104.32724146 Ry
     xc contribution           =     -33.90399726 Ry
     ewald contribution        =    -223.08083981 Ry
     smearing contrib. (-TS)   =      -0.00015649 Ry

     convergence has been achieved in   6 iterations

     Writing output data file Ni_exc2.save

     init_run     :      2.13s CPU      2.17s WALL (       1 calls)
     electrons    :     17.38s CPU     17.88s WALL (       1 calls)

     Called by init_run:
     wfcinit      :      0.76s CPU      0.80s WALL (       1 calls)
     potinit      :      0.02s CPU      0.02s WALL (       1 calls)

     Called by electrons:
     c_bands      :     14.94s CPU     15.36s WALL (       7 calls)
     sum_band     :      2.18s CPU      2.26s WALL (       7 calls)
     v_of_rho     :      0.12s CPU      0.12s WALL (       7 calls)
     v_h          :      0.00s CPU      0.00s WALL (       7 calls)
     v_xc         :      0.12s CPU      0.12s WALL (       7 calls)
     newd         :      0.17s CPU      0.16s WALL (       7 calls)
     mix_rho      :      0.01s CPU      0.01s WALL (       7 calls)

     Called by c_bands:
     init_us_2    :      0.71s CPU      0.69s WALL (    1650 calls)
     cegterg      :     13.98s CPU     14.45s WALL (     770 calls)

     Called by sum_band:
     sum_band:bec :      0.02s CPU      0.02s WALL (     770 calls)
     addusdens    :      0.18s CPU      0.18s WALL (       7 calls)

     Called by *egterg:
     h_psi        :      7.82s CPU      8.29s WALL (    2593 calls)
     s_psi        :      0.74s CPU      0.78s WALL (    2593 calls)
     g_psi        :      0.06s CPU      0.07s WALL (    1713 calls)
     cdiaghg      :      2.26s CPU      2.38s WALL (    2373 calls)
     cegterg:over :      1.49s CPU      1.48s WALL (    1713 calls)
     cegterg:upda :      0.87s CPU      0.82s WALL (    1713 calls)
     cegterg:last :      0.51s CPU      0.51s WALL (     770 calls)

     Called by h_psi:
     h_psi:vloc   :      6.28s CPU      6.61s WALL (    2593 calls)
     h_psi:vnl    :      1.49s CPU      1.63s WALL (    2593 calls)
     add_vuspsi   :      0.72s CPU      0.78s WALL (    2593 calls)

     General routines
     calbec       :      1.04s CPU      1.16s WALL (    3363 calls)
     fft          :      0.00s CPU      0.02s WALL (      93 calls)
     fftw         :      5.96s CPU      6.20s WALL (   60640 calls)
     davcio       :      0.01s CPU      0.02s WALL (     110 calls)

     Parallel routines
     fft_scatter  :      0.80s CPU      0.84s WALL (   60733 calls)

     PWSCF        :    20.98s CPU        21.58s WALL


   This run was terminated on:  21:56:35  18Feb2020            

=------------------------------------------------------------------------------=
   JOB DONE.
=------------------------------------------------------------------------------=
