
     Program PWSCF v.5.1 starts on 18Feb2020 at 21:48: 8 

     This program is part of the open-source Quantum ESPRESSO suite
     for quantum simulation of materials; please cite
         "P. Giannozzi et al., J. Phys.:Condens. Matter 21 395502 (2009);
          URL http://www.quantum-espresso.org", 
     in publications or presentations arising from this work. More details at
     http://www.quantum-espresso.org/quote

     Parallel version (MPI), running on     1 processors
     Waiting for input...
     Reading input from standard input

     Current dimensions of program PWSCF are:
     Max number of different atomic species (ntypx) = 10
     Max number of k-points (npk) =  40000
     Max angular momentum in pseudopotentials (lmaxx) =  3

     Subspace diagonalization in iterative solution of the eigenvalue problem:
     a serial algorithm will be used


     G-vector sticks info
     --------------------
     sticks:   dense  smooth     PW     G-vecs:    dense   smooth      PW
     Sum         253     253     85                 2565     2565     537



     bravais-lattice index     =            2
     lattice parameter (alat)  =       6.6590  a.u.
     unit-cell volume          =      73.8188 (a.u.)^3
     number of atoms/cell      =            1
     number of atomic types    =            1
     number of electrons       =        18.00
     number of Kohn-Sham states=           13
     kinetic-energy cutoff     =      40.0000  Ry
     charge density cutoff     =     160.0000  Ry
     convergence threshold     =      1.0E-06
     mixing beta               =       0.7000
     number of iterations used =            8  plain     mixing
     Exchange-correlation      = PBESOL ( 1  4 10  8 0)

     celldm(1)=   6.659000  celldm(2)=   0.000000  celldm(3)=   0.000000
     celldm(4)=   0.000000  celldm(5)=   0.000000  celldm(6)=   0.000000

     crystal axes: (cart. coord. in units of alat)
               a(1) = (  -0.500000   0.000000   0.500000 )  
               a(2) = (   0.000000   0.500000   0.500000 )  
               a(3) = (  -0.500000   0.500000   0.000000 )  

     reciprocal axes: (cart. coord. in units 2 pi/alat)
               b(1) = ( -1.000000 -1.000000  1.000000 )  
               b(2) = (  1.000000  1.000000  1.000000 )  
               b(3) = ( -1.000000  1.000000 -1.000000 )  


     PseudoPot. # 1 for Ni read from file:
     ../pseudo/Ni.pbesol-spn-rrkjus_psl.1.0.0.UPF
     MD5 check sum: 6fc0a587bf949a08f2faed986b854013
     Pseudo is Ultrasoft + core correction, Zval = 18.0
     Generated using "atomic" code by A. Dal Corso  v.6.3
     Using radial grid of 1195 points,  6 beta functions with: 
                l(1) =   0
                l(2) =   0
                l(3) =   1
                l(4) =   1
                l(5) =   2
                l(6) =   2
     Q(r) pseudized with 0 coefficients 


     atomic species   valence    mass     pseudopotential
        Ni            18.00    58.69000     Ni( 1.00)

     48 Sym. Ops., with inversion, found


                                    s                        frac. trans.

      isym =  1     identity                                     

 cryst.   s( 1) = (     1          0          0      )
                  (     0          1          0      )
                  (     0          0          1      )

 cart.    s( 1) = (  1.0000000  0.0000000  0.0000000 )
                  (  0.0000000  1.0000000  0.0000000 )
                  (  0.0000000  0.0000000  1.0000000 )


      isym =  2     180 deg rotation - cart. axis [0,0,1]        

 cryst.   s( 2) = (     0          1         -1      )
                  (     1          0         -1      )
                  (     0          0         -1      )

 cart.    s( 2) = ( -1.0000000  0.0000000  0.0000000 )
                  (  0.0000000 -1.0000000  0.0000000 )
                  (  0.0000000  0.0000000  1.0000000 )


      isym =  3     180 deg rotation - cart. axis [0,1,0]        

 cryst.   s( 3) = (    -1          0          0      )
                  (    -1          0          1      )
                  (    -1          1          0      )

 cart.    s( 3) = ( -1.0000000  0.0000000  0.0000000 )
                  (  0.0000000  1.0000000  0.0000000 )
                  (  0.0000000  0.0000000 -1.0000000 )


      isym =  4     180 deg rotation - cart. axis [1,0,0]        

 cryst.   s( 4) = (     0         -1          1      )
                  (     0         -1          0      )
                  (     1         -1          0      )

 cart.    s( 4) = (  1.0000000  0.0000000  0.0000000 )
                  (  0.0000000 -1.0000000  0.0000000 )
                  (  0.0000000  0.0000000 -1.0000000 )


      isym =  5     180 deg rotation - cart. axis [1,1,0]        

 cryst.   s( 5) = (     0         -1          0      )
                  (    -1          0          0      )
                  (     0          0         -1      )

 cart.    s( 5) = (  0.0000000  1.0000000  0.0000000 )
                  (  1.0000000  0.0000000  0.0000000 )
                  (  0.0000000  0.0000000 -1.0000000 )


      isym =  6     180 deg rotation - cart. axis [1,-1,0]       

 cryst.   s( 6) = (    -1          0          1      )
                  (     0         -1          1      )
                  (     0          0          1      )

 cart.    s( 6) = (  0.0000000 -1.0000000  0.0000000 )
                  ( -1.0000000  0.0000000  0.0000000 )
                  (  0.0000000  0.0000000 -1.0000000 )


      isym =  7      90 deg rotation - cart. axis [0,0,-1]       

 cryst.   s( 7) = (     0          1          0      )
                  (     0          1         -1      )
                  (    -1          1          0      )

 cart.    s( 7) = (  0.0000000  1.0000000  0.0000000 )
                  ( -1.0000000  0.0000000  0.0000000 )
                  (  0.0000000  0.0000000  1.0000000 )


      isym =  8      90 deg rotation - cart. axis [0,0,1]        

 cryst.   s( 8) = (     1          0         -1      )
                  (     1          0          0      )
                  (     1         -1          0      )

 cart.    s( 8) = (  0.0000000 -1.0000000  0.0000000 )
                  (  1.0000000  0.0000000  0.0000000 )
                  (  0.0000000  0.0000000  1.0000000 )


      isym =  9     180 deg rotation - cart. axis [1,0,1]        

 cryst.   s( 9) = (    -1          0          0      )
                  (     0          0         -1      )
                  (     0         -1          0      )

 cart.    s( 9) = (  0.0000000  0.0000000  1.0000000 )
                  (  0.0000000 -1.0000000  0.0000000 )
                  (  1.0000000  0.0000000  0.0000000 )


      isym = 10     180 deg rotation - cart. axis [-1,0,1]       

 cryst.   s(10) = (     1          0          0      )
                  (     1         -1          0      )
                  (     1          0         -1      )

 cart.    s(10) = (  0.0000000  0.0000000 -1.0000000 )
                  (  0.0000000 -1.0000000  0.0000000 )
                  ( -1.0000000  0.0000000  0.0000000 )


      isym = 11      90 deg rotation - cart. axis [0,1,0]        

 cryst.   s(11) = (     0          1         -1      )
                  (    -1          1          0      )
                  (     0          1          0      )

 cart.    s(11) = (  0.0000000  0.0000000  1.0000000 )
                  (  0.0000000  1.0000000  0.0000000 )
                  ( -1.0000000  0.0000000  0.0000000 )


      isym = 12      90 deg rotation - cart. axis [0,-1,0]       

 cryst.   s(12) = (     0         -1          1      )
                  (     0          0          1      )
                  (    -1          0          1      )

 cart.    s(12) = (  0.0000000  0.0000000 -1.0000000 )
                  (  0.0000000  1.0000000  0.0000000 )
                  (  1.0000000  0.0000000  0.0000000 )


      isym = 13     180 deg rotation - cart. axis [0,1,1]        

 cryst.   s(13) = (    -1          1          0      )
                  (     0          1          0      )
                  (     0          1         -1      )

 cart.    s(13) = ( -1.0000000  0.0000000  0.0000000 )
                  (  0.0000000  0.0000000  1.0000000 )
                  (  0.0000000  1.0000000  0.0000000 )


      isym = 14     180 deg rotation - cart. axis [0,1,-1]       

 cryst.   s(14) = (     0          0         -1      )
                  (     0         -1          0      )
                  (    -1          0          0      )

 cart.    s(14) = ( -1.0000000  0.0000000  0.0000000 )
                  (  0.0000000  0.0000000 -1.0000000 )
                  (  0.0000000 -1.0000000  0.0000000 )


      isym = 15      90 deg rotation - cart. axis [-1,0,0]       

 cryst.   s(15) = (     0          0          1      )
                  (    -1          0          1      )
                  (     0         -1          1      )

 cart.    s(15) = (  1.0000000  0.0000000  0.0000000 )
                  (  0.0000000  0.0000000  1.0000000 )
                  (  0.0000000 -1.0000000  0.0000000 )


      isym = 16      90 deg rotation - cart. axis [1,0,0]        

 cryst.   s(16) = (     1         -1          0      )
                  (     1          0         -1      )
                  (     1          0          0      )

 cart.    s(16) = (  1.0000000  0.0000000  0.0000000 )
                  (  0.0000000  0.0000000 -1.0000000 )
                  (  0.0000000  1.0000000  0.0000000 )


      isym = 17     120 deg rotation - cart. axis [-1,-1,-1]     

 cryst.   s(17) = (    -1          0          1      )
                  (    -1          1          0      )
                  (    -1          0          0      )

 cart.    s(17) = (  0.0000000  1.0000000  0.0000000 )
                  (  0.0000000  0.0000000  1.0000000 )
                  (  1.0000000  0.0000000  0.0000000 )


      isym = 18     120 deg rotation - cart. axis [-1,1,1]       

 cryst.   s(18) = (     0          1          0      )
                  (     0          0          1      )
                  (     1          0          0      )

 cart.    s(18) = (  0.0000000 -1.0000000  0.0000000 )
                  (  0.0000000  0.0000000  1.0000000 )
                  ( -1.0000000  0.0000000  0.0000000 )


      isym = 19     120 deg rotation - cart. axis [1,1,-1]       

 cryst.   s(19) = (     1          0         -1      )
                  (     0          0         -1      )
                  (     0          1         -1      )

 cart.    s(19) = (  0.0000000  1.0000000  0.0000000 )
                  (  0.0000000  0.0000000 -1.0000000 )
                  ( -1.0000000  0.0000000  0.0000000 )


      isym = 20     120 deg rotation - cart. axis [1,-1,1]       

 cryst.   s(20) = (     0         -1          0      )
                  (     1         -1          0      )
                  (     0         -1          1      )

 cart.    s(20) = (  0.0000000 -1.0000000  0.0000000 )
                  (  0.0000000  0.0000000 -1.0000000 )
                  (  1.0000000  0.0000000  0.0000000 )


      isym = 21     120 deg rotation - cart. axis [1,1,1]        

 cryst.   s(21) = (     0          0         -1      )
                  (     0          1         -1      )
                  (     1          0         -1      )

 cart.    s(21) = (  0.0000000  0.0000000  1.0000000 )
                  (  1.0000000  0.0000000  0.0000000 )
                  (  0.0000000  1.0000000  0.0000000 )


      isym = 22     120 deg rotation - cart. axis [-1,1,-1]      

 cryst.   s(22) = (    -1          1          0      )
                  (    -1          0          0      )
                  (    -1          0          1      )

 cart.    s(22) = (  0.0000000  0.0000000  1.0000000 )
                  ( -1.0000000  0.0000000  0.0000000 )
                  (  0.0000000 -1.0000000  0.0000000 )


      isym = 23     120 deg rotation - cart. axis [1,-1,-1]      

 cryst.   s(23) = (     0          0          1      )
                  (     1          0          0      )
                  (     0          1          0      )

 cart.    s(23) = (  0.0000000  0.0000000 -1.0000000 )
                  ( -1.0000000  0.0000000  0.0000000 )
                  (  0.0000000  1.0000000  0.0000000 )


      isym = 24     120 deg rotation - cart. axis [-1,-1,1]      

 cryst.   s(24) = (     1         -1          0      )
                  (     0         -1          1      )
                  (     0         -1          0      )

 cart.    s(24) = (  0.0000000  0.0000000 -1.0000000 )
                  (  1.0000000  0.0000000  0.0000000 )
                  (  0.0000000 -1.0000000  0.0000000 )


      isym = 25     inversion                                    

 cryst.   s(25) = (    -1          0          0      )
                  (     0         -1          0      )
                  (     0          0         -1      )

 cart.    s(25) = ( -1.0000000  0.0000000  0.0000000 )
                  (  0.0000000 -1.0000000  0.0000000 )
                  (  0.0000000  0.0000000 -1.0000000 )


      isym = 26     inv. 180 deg rotation - cart. axis [0,0,1]   

 cryst.   s(26) = (     0         -1          1      )
                  (    -1          0          1      )
                  (     0          0          1      )

 cart.    s(26) = (  1.0000000  0.0000000  0.0000000 )
                  (  0.0000000  1.0000000  0.0000000 )
                  (  0.0000000  0.0000000 -1.0000000 )


      isym = 27     inv. 180 deg rotation - cart. axis [0,1,0]   

 cryst.   s(27) = (     1          0          0      )
                  (     1          0         -1      )
                  (     1         -1          0      )

 cart.    s(27) = (  1.0000000  0.0000000  0.0000000 )
                  (  0.0000000 -1.0000000  0.0000000 )
                  (  0.0000000  0.0000000  1.0000000 )


      isym = 28     inv. 180 deg rotation - cart. axis [1,0,0]   

 cryst.   s(28) = (     0          1         -1      )
                  (     0          1          0      )
                  (    -1          1          0      )

 cart.    s(28) = ( -1.0000000  0.0000000  0.0000000 )
                  (  0.0000000  1.0000000  0.0000000 )
                  (  0.0000000  0.0000000  1.0000000 )


      isym = 29     inv. 180 deg rotation - cart. axis [1,1,0]   

 cryst.   s(29) = (     0          1          0      )
                  (     1          0          0      )
                  (     0          0          1      )

 cart.    s(29) = (  0.0000000 -1.0000000  0.0000000 )
                  ( -1.0000000  0.0000000  0.0000000 )
                  (  0.0000000  0.0000000  1.0000000 )


      isym = 30     inv. 180 deg rotation - cart. axis [1,-1,0]  

 cryst.   s(30) = (     1          0         -1      )
                  (     0          1         -1      )
                  (     0          0         -1      )

 cart.    s(30) = (  0.0000000  1.0000000  0.0000000 )
                  (  1.0000000  0.0000000  0.0000000 )
                  (  0.0000000  0.0000000  1.0000000 )


      isym = 31     inv.  90 deg rotation - cart. axis [0,0,-1]  

 cryst.   s(31) = (     0         -1          0      )
                  (     0         -1          1      )
                  (     1         -1          0      )

 cart.    s(31) = (  0.0000000 -1.0000000  0.0000000 )
                  (  1.0000000  0.0000000  0.0000000 )
                  (  0.0000000  0.0000000 -1.0000000 )


      isym = 32     inv.  90 deg rotation - cart. axis [0,0,1]   

 cryst.   s(32) = (    -1          0          1      )
                  (    -1          0          0      )
                  (    -1          1          0      )

 cart.    s(32) = (  0.0000000  1.0000000  0.0000000 )
                  ( -1.0000000  0.0000000  0.0000000 )
                  (  0.0000000  0.0000000 -1.0000000 )


      isym = 33     inv. 180 deg rotation - cart. axis [1,0,1]   

 cryst.   s(33) = (     1          0          0      )
                  (     0          0          1      )
                  (     0          1          0      )

 cart.    s(33) = (  0.0000000  0.0000000 -1.0000000 )
                  (  0.0000000  1.0000000  0.0000000 )
                  ( -1.0000000  0.0000000  0.0000000 )


      isym = 34     inv. 180 deg rotation - cart. axis [-1,0,1]  

 cryst.   s(34) = (    -1          0          0      )
                  (    -1          1          0      )
                  (    -1          0          1      )

 cart.    s(34) = (  0.0000000  0.0000000  1.0000000 )
                  (  0.0000000  1.0000000  0.0000000 )
                  (  1.0000000  0.0000000  0.0000000 )


      isym = 35     inv.  90 deg rotation - cart. axis [0,1,0]   

 cryst.   s(35) = (     0         -1          1      )
                  (     1         -1          0      )
                  (     0         -1          0      )

 cart.    s(35) = (  0.0000000  0.0000000 -1.0000000 )
                  (  0.0000000 -1.0000000  0.0000000 )
                  (  1.0000000  0.0000000  0.0000000 )


      isym = 36     inv.  90 deg rotation - cart. axis [0,-1,0]  

 cryst.   s(36) = (     0          1         -1      )
                  (     0          0         -1      )
                  (     1          0         -1      )

 cart.    s(36) = (  0.0000000  0.0000000  1.0000000 )
                  (  0.0000000 -1.0000000  0.0000000 )
                  ( -1.0000000  0.0000000  0.0000000 )


      isym = 37     inv. 180 deg rotation - cart. axis [0,1,1]   

 cryst.   s(37) = (     1         -1          0      )
                  (     0         -1          0      )
                  (     0         -1          1      )

 cart.    s(37) = (  1.0000000  0.0000000  0.0000000 )
                  (  0.0000000  0.0000000 -1.0000000 )
                  (  0.0000000 -1.0000000  0.0000000 )


      isym = 38     inv. 180 deg rotation - cart. axis [0,1,-1]  

 cryst.   s(38) = (     0          0          1      )
                  (     0          1          0      )
                  (     1          0          0      )

 cart.    s(38) = (  1.0000000  0.0000000  0.0000000 )
                  (  0.0000000  0.0000000  1.0000000 )
                  (  0.0000000  1.0000000  0.0000000 )


      isym = 39     inv.  90 deg rotation - cart. axis [-1,0,0]  

 cryst.   s(39) = (     0          0         -1      )
                  (     1          0         -1      )
                  (     0          1         -1      )

 cart.    s(39) = ( -1.0000000  0.0000000  0.0000000 )
                  (  0.0000000  0.0000000 -1.0000000 )
                  (  0.0000000  1.0000000  0.0000000 )


      isym = 40     inv.  90 deg rotation - cart. axis [1,0,0]   

 cryst.   s(40) = (    -1          1          0      )
                  (    -1          0          1      )
                  (    -1          0          0      )

 cart.    s(40) = ( -1.0000000  0.0000000  0.0000000 )
                  (  0.0000000  0.0000000  1.0000000 )
                  (  0.0000000 -1.0000000  0.0000000 )


      isym = 41     inv. 120 deg rotation - cart. axis [-1,-1,-1]

 cryst.   s(41) = (     1          0         -1      )
                  (     1         -1          0      )
                  (     1          0          0      )

 cart.    s(41) = (  0.0000000 -1.0000000  0.0000000 )
                  (  0.0000000  0.0000000 -1.0000000 )
                  ( -1.0000000  0.0000000  0.0000000 )


      isym = 42     inv. 120 deg rotation - cart. axis [-1,1,1]  

 cryst.   s(42) = (     0         -1          0      )
                  (     0          0         -1      )
                  (    -1          0          0      )

 cart.    s(42) = (  0.0000000  1.0000000  0.0000000 )
                  (  0.0000000  0.0000000 -1.0000000 )
                  (  1.0000000  0.0000000  0.0000000 )


      isym = 43     inv. 120 deg rotation - cart. axis [1,1,-1]  

 cryst.   s(43) = (    -1          0          1      )
                  (     0          0          1      )
                  (     0         -1          1      )

 cart.    s(43) = (  0.0000000 -1.0000000  0.0000000 )
                  (  0.0000000  0.0000000  1.0000000 )
                  (  1.0000000  0.0000000  0.0000000 )


      isym = 44     inv. 120 deg rotation - cart. axis [1,-1,1]  

 cryst.   s(44) = (     0          1          0      )
                  (    -1          1          0      )
                  (     0          1         -1      )

 cart.    s(44) = (  0.0000000  1.0000000  0.0000000 )
                  (  0.0000000  0.0000000  1.0000000 )
                  ( -1.0000000  0.0000000  0.0000000 )


      isym = 45     inv. 120 deg rotation - cart. axis [1,1,1]   

 cryst.   s(45) = (     0          0          1      )
                  (     0         -1          1      )
                  (    -1          0          1      )

 cart.    s(45) = (  0.0000000  0.0000000 -1.0000000 )
                  ( -1.0000000  0.0000000  0.0000000 )
                  (  0.0000000 -1.0000000  0.0000000 )


      isym = 46     inv. 120 deg rotation - cart. axis [-1,1,-1] 

 cryst.   s(46) = (     1         -1          0      )
                  (     1          0          0      )
                  (     1          0         -1      )

 cart.    s(46) = (  0.0000000  0.0000000 -1.0000000 )
                  (  1.0000000  0.0000000  0.0000000 )
                  (  0.0000000  1.0000000  0.0000000 )


      isym = 47     inv. 120 deg rotation - cart. axis [1,-1,-1] 

 cryst.   s(47) = (     0          0         -1      )
                  (    -1          0          0      )
                  (     0         -1          0      )

 cart.    s(47) = (  0.0000000  0.0000000  1.0000000 )
                  (  1.0000000  0.0000000  0.0000000 )
                  (  0.0000000 -1.0000000  0.0000000 )


      isym = 48     inv. 120 deg rotation - cart. axis [-1,-1,1] 

 cryst.   s(48) = (    -1          1          0      )
                  (     0          1         -1      )
                  (     0          1          0      )

 cart.    s(48) = (  0.0000000  0.0000000  1.0000000 )
                  ( -1.0000000  0.0000000  0.0000000 )
                  (  0.0000000  1.0000000  0.0000000 )


     point group O_h (m-3m) 
     there are 10 classes
     the character table:

       E     8C3   6C2'  6C4   3C2   i     6S4   8S6   3s_h  6s_d 
A_1g   1.00  1.00  1.00  1.00  1.00  1.00  1.00  1.00  1.00  1.00
A_2g   1.00  1.00 -1.00 -1.00  1.00  1.00 -1.00  1.00  1.00 -1.00
E_g    2.00 -1.00  0.00  0.00  2.00  2.00  0.00 -1.00  2.00  0.00
T_1g   3.00  0.00 -1.00  1.00 -1.00  3.00  1.00  0.00 -1.00 -1.00
T_2g   3.00  0.00  1.00 -1.00 -1.00  3.00 -1.00  0.00 -1.00  1.00
A_1u   1.00  1.00  1.00  1.00  1.00 -1.00 -1.00 -1.00 -1.00 -1.00
A_2u   1.00  1.00 -1.00 -1.00  1.00 -1.00  1.00 -1.00 -1.00  1.00
E_u    2.00 -1.00  0.00  0.00  2.00 -2.00  0.00  1.00 -2.00  0.00
T_1u   3.00  0.00 -1.00  1.00 -1.00 -3.00 -1.00  0.00  1.00  1.00
T_2u   3.00  0.00  1.00 -1.00 -1.00 -3.00  1.00  0.00  1.00 -1.00

     the symmetry operations in each class:
     E        1
     3C2      2    4    3
     6C2'     5    6   14   13   10    9
     6C4      7    8   15   16   12   11
     8C3     17   19   20   18   24   21   22   23
     i       25
     3s_h    26   28   27
     6s_d    29   30   38   37   34   33
     6S4     31   32   39   40   36   35
     8S6     41   43   44   42   48   45   46   47

   Cartesian axes

     site n.     atom                  positions (alat units)
         1           Ni  tau(   1) = (   0.0000000   0.0000000   0.0000000  )

   Crystallographic axes

     site n.     atom                  positions (cryst. coord.)
         1           Ni  tau(   1) = (  0.0000000  0.0000000  0.0000000  )

     number of k points=    19  Marzari-Vanderbilt smearing, width (Ry)=  0.0200
                       cart. coord. in units 2pi/alat
        k(    1) = (  -0.1000000   0.1000000   0.1000000), wk =   0.0320000
        k(    2) = (  -0.3000000   0.3000000  -0.1000000), wk =   0.0960000
        k(    3) = (   0.5000000  -0.5000000   0.7000000), wk =   0.0960000
        k(    4) = (   0.3000000  -0.3000000   0.5000000), wk =   0.0960000
        k(    5) = (   0.1000000  -0.1000000   0.3000000), wk =   0.0960000
        k(    6) = (  -0.1000000   0.5000000   0.1000000), wk =   0.0960000
        k(    7) = (   0.7000000  -0.3000000   0.9000000), wk =   0.1920000
        k(    8) = (   0.5000000  -0.1000000   0.7000000), wk =   0.1920000
        k(    9) = (   0.3000000   0.1000000   0.5000000), wk =   0.1920000
        k(   10) = (  -0.1000000  -1.1000000   0.1000000), wk =   0.0960000
        k(   11) = (  -0.3000000  -0.9000000  -0.1000000), wk =   0.1920000
        k(   12) = (  -0.5000000  -0.7000000  -0.3000000), wk =   0.0960000
        k(   13) = (  -0.1000000  -0.7000000   0.1000000), wk =   0.0960000
        k(   14) = (  -0.3000000   0.3000000   0.3000000), wk =   0.0320000
        k(   15) = (   0.5000000  -0.5000000   1.1000000), wk =   0.0960000
        k(   16) = (   0.3000000  -0.3000000   0.9000000), wk =   0.0960000
        k(   17) = (  -0.3000000  -1.3000000   0.3000000), wk =   0.0960000
        k(   18) = (  -0.5000000  -1.1000000   0.1000000), wk =   0.0960000
        k(   19) = (   0.5000000  -0.5000000  -0.5000000), wk =   0.0160000

                       cryst. coord.
        k(    1) = (   0.1000000   0.1000000   0.1000000), wk =   0.0320000
        k(    2) = (   0.1000000   0.1000000   0.3000000), wk =   0.0960000
        k(    3) = (   0.1000000   0.1000000  -0.5000000), wk =   0.0960000
        k(    4) = (   0.1000000   0.1000000  -0.3000000), wk =   0.0960000
        k(    5) = (   0.1000000   0.1000000  -0.1000000), wk =   0.0960000
        k(    6) = (   0.1000000   0.3000000   0.3000000), wk =   0.0960000
        k(    7) = (   0.1000000   0.3000000  -0.5000000), wk =   0.1920000
        k(    8) = (   0.1000000   0.3000000  -0.3000000), wk =   0.1920000
        k(    9) = (   0.1000000   0.3000000  -0.1000000), wk =   0.1920000
        k(   10) = (   0.1000000  -0.5000000  -0.5000000), wk =   0.0960000
        k(   11) = (   0.1000000  -0.5000000  -0.3000000), wk =   0.1920000
        k(   12) = (   0.1000000  -0.5000000  -0.1000000), wk =   0.0960000
        k(   13) = (   0.1000000  -0.3000000  -0.3000000), wk =   0.0960000
        k(   14) = (   0.3000000   0.3000000   0.3000000), wk =   0.0320000
        k(   15) = (   0.3000000   0.3000000  -0.5000000), wk =   0.0960000
        k(   16) = (   0.3000000   0.3000000  -0.3000000), wk =   0.0960000
        k(   17) = (   0.3000000  -0.5000000  -0.5000000), wk =   0.0960000
        k(   18) = (   0.3000000  -0.5000000  -0.3000000), wk =   0.0960000
        k(   19) = (  -0.5000000  -0.5000000  -0.5000000), wk =   0.0160000

     Dense  grid:     2565 G-vectors     FFT dimensions: (  20,  20,  20)

     Largest allocated arrays     est. size (Mb)     dimensions
        Kohn-Sham Wavefunctions         0.07 Mb     (     332,   13)
        NL pseudopotentials             0.09 Mb     (     332,   18)
        Each V/rho on FFT grid          0.12 Mb     (    8000)
        Each G-vector array             0.02 Mb     (    2565)
        G-vector shells                 0.00 Mb     (      62)
     Largest temporary arrays     est. size (Mb)     dimensions
        Auxiliary wavefunctions         0.26 Mb     (     332,   52)
        Each subspace H/S matrix        0.04 Mb     (      52,   52)
        Each <psi_i|beta_j> matrix      0.00 Mb     (      18,   13)
        Arrays for rho mixing           0.98 Mb     (    8000,    8)

     Check: negative/imaginary core charge=   -0.000044    0.000000

     Initial potential from superposition of free atoms

     starting charge   17.99977, renormalised to   18.00000
     Starting wfc are   10 randomized atomic wfcs +    3 random wfc

     total cpu time spent up to now is        2.0 secs

     per-process dynamical memory:     8.9 Mb

     Self-consistent Calculation

     iteration #  1     ecut=    40.00 Ry     beta=0.70
     Davidson diagonalization with overlap
     ethr =  1.00E-02,  avg # of iterations =  4.3

     Threshold (ethr) on eigenvalues was too large:
     Diagonalizing with lowered threshold

     Davidson diagonalization with overlap
     ethr =  1.96E-04,  avg # of iterations =  1.1

     total cpu time spent up to now is        2.8 secs

     total energy              =    -338.86368905 Ry
     Harris-Foulkes estimate   =    -338.88560715 Ry
     estimated scf accuracy    <       0.03676144 Ry

     iteration #  2     ecut=    40.00 Ry     beta=0.70
     Davidson diagonalization with overlap
     ethr =  2.04E-04,  avg # of iterations =  2.0

     total cpu time spent up to now is        3.3 secs

     total energy              =    -338.85521232 Ry
     Harris-Foulkes estimate   =    -338.89409117 Ry
     estimated scf accuracy    <       0.10307995 Ry

     iteration #  3     ecut=    40.00 Ry     beta=0.70
     Davidson diagonalization with overlap
     ethr =  2.04E-04,  avg # of iterations =  2.0

     total cpu time spent up to now is        3.7 secs

     total energy              =    -338.87520961 Ry
     Harris-Foulkes estimate   =    -338.87643573 Ry
     estimated scf accuracy    <       0.00462273 Ry

     iteration #  4     ecut=    40.00 Ry     beta=0.70
     Davidson diagonalization with overlap
     ethr =  2.57E-05,  avg # of iterations =  1.9

     total cpu time spent up to now is        4.1 secs

     total energy              =    -338.87578932 Ry
     Harris-Foulkes estimate   =    -338.87579142 Ry
     estimated scf accuracy    <       0.00004358 Ry

     iteration #  5     ecut=    40.00 Ry     beta=0.70
     Davidson diagonalization with overlap
     ethr =  2.42E-07,  avg # of iterations =  2.3

     total cpu time spent up to now is        4.6 secs

     total energy              =    -338.87580549 Ry
     Harris-Foulkes estimate   =    -338.87580707 Ry
     estimated scf accuracy    <       0.00000479 Ry

     iteration #  6     ecut=    40.00 Ry     beta=0.70
     Davidson diagonalization with overlap
     ethr =  2.66E-08,  avg # of iterations =  1.2

     total cpu time spent up to now is        5.5 secs

     End of self-consistent calculation

          k =-0.1000 0.1000 0.1000 (   319 PWs)   bands (ev):

   -85.6282 -45.5401 -45.5401 -45.4088   9.0857  15.5769  15.6781  15.6781
    16.6835  16.6835  39.3254  42.4528  44.1290

     occupation numbers 
     1.0000   1.0000   1.0000   1.0000   1.0000   1.0000   1.0000   1.0000
     1.0008   1.0008   0.0000   0.0000   0.0000

          k =-0.3000 0.3000-0.1000 (   311 PWs)   bands (ev):

   -85.6116 -45.4679 -45.4200 -45.3913  10.9755  15.1781  15.8455  16.0018
    16.6093  17.2167  33.0471  37.3021  43.6729

     occupation numbers 
     1.0000   1.0000   1.0000   1.0000   1.0000   1.0000   1.0000   1.0000
     1.0002   1.0677   0.0000   0.0000   0.0000

          k = 0.5000-0.5000 0.7000 (   314 PWs)   bands (ev):

   -85.5944 -45.5121 -45.4498 -45.4191  13.2874  15.5120  15.7938  16.0062
    17.3260  18.4636  24.7906  36.9785  40.8633

     occupation numbers 
     1.0000   1.0000   1.0000   1.0000   1.0000   1.0000   1.0000   1.0000
     0.9388   0.0000   0.0000   0.0000   0.0000

          k = 0.3000-0.3000 0.5000 (   317 PWs)   bands (ev):

   -85.5997 -45.5945 -45.4982 -45.3947  12.8221  15.3672  15.6257  15.8736
    17.3971  17.6148  27.0309  38.6860  39.1735

     occupation numbers 
     1.0000   1.0000   1.0000   1.0000   1.0000   1.0000   1.0000   1.0000
     0.7813   0.2322   0.0000   0.0000   0.0000

          k = 0.1000-0.1000 0.3000 (   317 PWs)   bands (ev):

   -85.6201 -45.5535 -45.4860 -45.4304  10.0634  15.2288  15.9094  15.9571
    16.4771  16.8771  36.3551  40.3808  40.5290

     occupation numbers 
     1.0000   1.0000   1.0000   1.0000   1.0000   1.0000   1.0000   1.0000
     1.0000   1.0130   0.0000   0.0000   0.0000

          k =-0.1000 0.5000 0.1000 (   314 PWs)   bands (ev):

   -85.6063 -45.5161 -45.4524 -45.4495  11.7707  14.7227  15.8833  16.4232
    16.8338  17.1982  33.6755  36.9733  37.6883

     occupation numbers 
     1.0000   1.0000   1.0000   1.0000   1.0000   1.0000   1.0000   1.0000
     1.0076   1.0760   0.0000   0.0000   0.0000

          k = 0.7000-0.3000 0.9000 (   315 PWs)   bands (ev):

   -85.5915 -45.5712 -45.4842 -45.4131  13.7211  14.5077  15.4554  16.7618
    17.3167  19.2463  28.3230  32.4577  33.6478

     occupation numbers 
     1.0000   1.0000   1.0000   1.0000   1.0000   1.0000   1.0000   1.0028
     0.9555   0.0000   0.0000   0.0000   0.0000

          k = 0.5000-0.1000 0.7000 (   315 PWs)   bands (ev):

   -85.5886 -45.5223 -45.4819 -45.4394  14.2653  14.7025  15.1718  16.4865
    17.2626  20.9860  25.7104  30.5304  34.8516

     occupation numbers 
     1.0000   1.0000   1.0000   1.0000   1.0000   1.0000   1.0000   1.0000
     1.0312   0.0000   0.0000   0.0000   0.0000

          k = 0.3000 0.1000 0.5000 (   316 PWs)   bands (ev):

   -85.6027 -45.5735 -45.4982 -45.4150  12.4892  14.8717  15.5800  16.2661
    16.8708  17.7170  30.3387  34.6373  39.1820

     occupation numbers 
     1.0000   1.0000   1.0000   1.0000   1.0000   1.0000   1.0000   1.0000
     1.0121   0.0895   0.0000   0.0000   0.0000

          k =-0.1000-1.1000 0.1000 (   318 PWs)   bands (ev):

   -85.5863 -45.5737 -45.5440 -45.4984  13.4177  13.9324  16.9897  17.2652
    17.6179  20.1724  27.9556  30.3546  32.8602

     occupation numbers 
     1.0000   1.0000   1.0000   1.0000   1.0000   1.0000   1.0397   1.0284
     0.2265   0.0000   0.0000   0.0000   0.0000

          k =-0.3000-0.9000-0.1000 (   317 PWs)   bands (ev):

   -85.5854 -45.5513 -45.5324 -45.4561  13.8733  14.2639  15.9088  16.9794
    17.5531  21.9739  27.0169  28.5999  31.7423

     occupation numbers 
     1.0000   1.0000   1.0000   1.0000   1.0000   1.0000   1.0000   1.0365
     0.3653   0.0000   0.0000   0.0000   0.0000

          k =-0.5000-0.7000-0.3000 (   312 PWs)   bands (ev):

   -85.5901 -45.5112 -45.4308 -45.3957  13.7637  15.0909  15.7348  16.0593
    17.4267  20.2560  23.8781  34.9552  36.2003

     occupation numbers 
     1.0000   1.0000   1.0000   1.0000   1.0000   1.0000   1.0000   1.0000
     0.7036   0.0000   0.0000   0.0000   0.0000

          k =-0.1000-0.7000 0.1000 (   319 PWs)   bands (ev):

   -85.5952 -45.6523 -45.5171 -45.4830  13.1615  14.2258  16.2318  16.9390
    17.3997  17.9135  31.4405  32.5914  34.3373

     occupation numbers 
     1.0000   1.0000   1.0000   1.0000   1.0000   1.0000   1.0000   1.0253
     0.7748   0.0068   0.0000   0.0000   0.0000

          k =-0.3000 0.3000 0.3000 (   308 PWs)   bands (ev):

   -85.6053 -45.4123 -45.3762 -45.3762  11.7156  15.3202  15.8360  15.8360
    17.1566  17.1566  29.6663  40.7748  42.4385

     occupation numbers 
     1.0000   1.0000   1.0000   1.0000   1.0000   1.0000   1.0000   1.0000
     1.0833   1.0833   0.0000   0.0000   0.0000

          k = 0.5000-0.5000 1.1000 (   317 PWs)   bands (ev):

   -85.5961 -45.5856 -45.5038 -45.4261  13.4973  15.0595  15.2827  16.1996
    16.9172  18.8297  27.6798  32.2131  40.4026

     occupation numbers 
     1.0000   1.0000   1.0000   1.0000   1.0000   1.0000   1.0000   1.0000
     1.0203   0.0000   0.0000   0.0000   0.0000

          k = 0.3000-0.3000 0.9000 (   309 PWs)   bands (ev):

   -85.5840 -45.4828 -45.4196 -45.3313  14.2007  14.4827  15.6006  16.7158
    17.4857  22.7787  24.3167  29.2077  35.6714

     occupation numbers 
     1.0000   1.0000   1.0000   1.0000   1.0000   1.0000   1.0000   1.0013
     0.5413   0.0000   0.0000   0.0000   0.0000

          k =-0.3000-1.3000 0.3000 (   314 PWs)   bands (ev):

   -85.5911 -45.5221 -45.4641 -45.4389  13.7690  14.8500  15.5426  16.2612
    17.5223  19.7718  25.1991  33.9330  36.8691

     occupation numbers 
     1.0000   1.0000   1.0000   1.0000   1.0000   1.0000   1.0000   1.0000
     0.4429   0.0000   0.0000   0.0000   0.0000

          k =-0.5000-1.1000 0.1000 (   314 PWs)   bands (ev):

   -85.5844 -45.5160 -45.4766 -45.4311  14.2508  14.8027  15.0446  16.6981
    17.6131  23.8848  24.8277  29.2083  30.3175

     occupation numbers 
     1.0000   1.0000   1.0000   1.0000   1.0000   1.0000   1.0000   1.0010
     0.2354   0.0000   0.0000   0.0000   0.0000

          k = 0.5000-0.5000-0.5000 (   332 PWs)   bands (ev):

   -85.5997 -45.7570 -45.6056 -45.6056  13.0853  15.5355  15.5355  17.1912
    17.3714  17.3714  23.5536  39.6503  42.1092

     occupation numbers 
     1.0000   1.0000   1.0000   1.0000   1.0000   1.0000   1.0000   1.0782
     0.8438   0.8438   0.0000   0.0000   0.0000

     the Fermi energy is    17.5388 ev

!    total energy              =    -338.87580618 Ry
     Harris-Foulkes estimate   =    -338.87580618 Ry
     estimated scf accuracy    <          5.2E-09 Ry

     The total energy is the sum of the following terms:

     one-electron contribution =    -186.20591318 Ry
     hartree contribution      =     104.31391163 Ry
     xc contribution           =     -33.90272558 Ry
     ewald contribution        =    -223.08083981 Ry
     smearing contrib. (-TS)   =      -0.00023924 Ry

     convergence has been achieved in   6 iterations

     Writing output data file Ni_exc2.save

     init_run     :      1.26s CPU      1.28s WALL (       1 calls)
     electrons    :      3.49s CPU      3.55s WALL (       1 calls)

     Called by init_run:
     wfcinit      :      0.09s CPU      0.10s WALL (       1 calls)
     potinit      :      0.02s CPU      0.01s WALL (       1 calls)

     Called by electrons:
     c_bands      :      2.64s CPU      2.69s WALL (       7 calls)
     sum_band     :      0.56s CPU      0.58s WALL (       7 calls)
     v_of_rho     :      0.12s CPU      0.12s WALL (       7 calls)
     v_h          :      0.00s CPU      0.00s WALL (       7 calls)
     v_xc         :      0.12s CPU      0.12s WALL (       7 calls)
     newd         :      0.20s CPU      0.20s WALL (       7 calls)
     mix_rho      :      0.01s CPU      0.01s WALL (       7 calls)

     Called by c_bands:
     init_us_2    :      0.14s CPU      0.13s WALL (     285 calls)
     cegterg      :      2.49s CPU      2.52s WALL (     133 calls)

     Called by sum_band:
     sum_band:bec :      0.01s CPU      0.00s WALL (     133 calls)
     addusdens    :      0.18s CPU      0.18s WALL (       7 calls)

     Called by *egterg:
     h_psi        :      1.44s CPU      1.47s WALL (     434 calls)
     s_psi        :      0.15s CPU      0.15s WALL (     434 calls)
     g_psi        :      0.02s CPU      0.01s WALL (     282 calls)
     cdiaghg      :      0.32s CPU      0.34s WALL (     396 calls)
     cegterg:over :      0.24s CPU      0.25s WALL (     282 calls)
     cegterg:upda :      0.14s CPU      0.15s WALL (     282 calls)
     cegterg:last :      0.09s CPU      0.09s WALL (     133 calls)

     Called by h_psi:
     h_psi:vloc   :      1.17s CPU      1.16s WALL (     434 calls)
     h_psi:vnl    :      0.26s CPU      0.30s WALL (     434 calls)
     add_vuspsi   :      0.14s CPU      0.15s WALL (     434 calls)

     General routines
     calbec       :      0.15s CPU      0.21s WALL (     567 calls)
     fft          :      0.01s CPU      0.02s WALL (      93 calls)
     fftw         :      1.08s CPU      1.09s WALL (   10415 calls)
     davcio       :      0.00s CPU      0.02s WALL (      19 calls)

     Parallel routines
     fft_scatter  :      0.12s CPU      0.15s WALL (   10508 calls)

     PWSCF        :     5.68s CPU         5.81s WALL


   This run was terminated on:  21:48:14  18Feb2020            

=------------------------------------------------------------------------------=
   JOB DONE.
=------------------------------------------------------------------------------=
