
     Program PROJWFC v.5.1 starts on 16Apr2020 at 14:16:26 

     This program is part of the open-source Quantum ESPRESSO suite
     for quantum simulation of materials; please cite
         "P. Giannozzi et al., J. Phys.:Condens. Matter 21 395502 (2009);
          URL http://www.quantum-espresso.org", 
     in publications or presentations arising from this work. More details at
     http://www.quantum-espresso.org/quote

     Parallel version (MPI), running on     1 processors

   Info: using nr1, nr2, nr3 values from input

   Info: using nr1s, nr2s, nr3s values from input

     IMPORTANT: XC functional enforced from input :
     Exchange-correlation      = PBE ( 1  4  3  4 0)
     Any further DFT definition will be discarded
     Please, verify this is what you really want

               file C.pbe-rrkjus.UPF: wavefunction(s)  2S 2P renormalized

     G-vector sticks info
     --------------------
     sticks:   dense  smooth     PW     G-vecs:    dense   smooth      PW
     Sum         595     241     85                96043    24369    4587

     Generating pointlists ...
     new r_m :   0.2381 (alat units)  1.1104 (a.u.) for type    1

     negative rho (up, down):  6.896E-07 6.896E-07

     Gaussian broadening (read from input): ngauss,degauss=   0    0.010000


     Calling projwave .... 

     Atomic states used for projection
     (read from pseudopotential files):

     state #   1: atom   1 (C  ), wfc  1 (l=0 m= 1)
     state #   2: atom   1 (C  ), wfc  2 (l=1 m= 1)
     state #   3: atom   1 (C  ), wfc  2 (l=1 m= 2)
     state #   4: atom   1 (C  ), wfc  2 (l=1 m= 3)
     state #   5: atom   2 (C  ), wfc  1 (l=0 m= 1)
     state #   6: atom   2 (C  ), wfc  2 (l=1 m= 1)
     state #   7: atom   2 (C  ), wfc  2 (l=1 m= 2)
     state #   8: atom   2 (C  ), wfc  2 (l=1 m= 3)
     state #   9: atom   3 (C  ), wfc  1 (l=0 m= 1)
     state #  10: atom   3 (C  ), wfc  2 (l=1 m= 1)
     state #  11: atom   3 (C  ), wfc  2 (l=1 m= 2)
     state #  12: atom   3 (C  ), wfc  2 (l=1 m= 3)
     state #  13: atom   4 (C  ), wfc  1 (l=0 m= 1)
     state #  14: atom   4 (C  ), wfc  2 (l=1 m= 1)
     state #  15: atom   4 (C  ), wfc  2 (l=1 m= 2)
     state #  16: atom   4 (C  ), wfc  2 (l=1 m= 3)

 k =   0.0000000000  0.0000000000  0.0000000000
==== e(   1) =   -20.01708 eV ==== 
     psi = 0.244*[#   1]+0.244*[#   5]+0.244*[#   9]+0.244*[#  13]+
    |psi|^2 = 0.979
==== e(   2) =   -19.91349 eV ==== 
     psi = 0.246*[#   1]+0.246*[#   5]+0.246*[#   9]+0.246*[#  13]+
    |psi|^2 = 0.986
==== e(   3) =    -8.46422 eV ==== 
     psi = 0.237*[#   2]+0.237*[#   6]+0.237*[#  10]+0.237*[#  14]+
    |psi|^2 = 0.948
==== e(   4) =    -7.69979 eV ==== 
     psi = 0.241*[#   2]+0.241*[#   6]+0.241*[#  10]+0.241*[#  14]+
    |psi|^2 = 0.964
==== e(   5) =    -3.56767 eV ==== 
     psi = 0.250*[#  12]+0.250*[#  16]+0.249*[#   4]+0.249*[#   8]+
    |psi|^2 = 0.997
==== e(   6) =    -3.56604 eV ==== 
     psi = 0.250*[#  11]+0.250*[#  15]+0.249*[#   3]+0.249*[#   7]+
    |psi|^2 = 0.997
==== e(   7) =    -3.55652 eV ==== 
     psi = 0.250*[#   4]+0.250*[#   8]+0.249*[#  12]+0.249*[#  16]+
    |psi|^2 = 0.997
==== e(   8) =    -3.55489 eV ==== 
     psi = 0.250*[#   3]+0.250*[#   7]+0.249*[#  11]+0.249*[#  15]+
    |psi|^2 = 0.997
==== e(   9) =     2.89203 eV ==== 
     psi = 0.002*[#   1]+0.002*[#   5]+0.002*[#   9]+0.002*[#  13]+
    |psi|^2 = 0.013
==== e(  10) =     3.29358 eV ==== 
     psi = 0.005*[#   2]+0.005*[#   6]+0.005*[#  10]+0.005*[#  14]+
    |psi|^2 = 0.021
==== e(  11) =     4.01477 eV ==== 
     psi = 
    |psi|^2 = 0.002
==== e(  12) =     5.22737 eV ==== 
     psi = 0.002*[#   2]+0.002*[#   6]+0.002*[#  10]+0.002*[#  14]+
    |psi|^2 = 0.008

 k =   0.0000000000  0.0962250449  0.0000000000
==== e(   1) =   -19.85302 eV ==== 
     psi = 0.231*[#   1]+0.231*[#   5]+0.231*[#   9]+0.231*[#  13]+0.014*[#   4]+
          +0.014*[#   8]+0.014*[#  12]+0.014*[#  16]+
    |psi|^2 = 0.979
==== e(   2) =   -19.75051 eV ==== 
     psi = 0.233*[#   1]+0.233*[#   5]+0.233*[#   9]+0.233*[#  13]+0.013*[#   4]+
          +0.013*[#   8]+0.013*[#  12]+0.013*[#  16]+
    |psi|^2 = 0.985
==== e(   3) =    -8.26671 eV ==== 
     psi = 0.238*[#   2]+0.238*[#   6]+0.238*[#  10]+0.238*[#  14]+
    |psi|^2 = 0.952
==== e(   4) =    -7.50697 eV ==== 
     psi = 0.242*[#   2]+0.242*[#   6]+0.242*[#  10]+0.242*[#  14]+
    |psi|^2 = 0.968
==== e(   5) =    -4.21535 eV ==== 
     psi = 0.241*[#  12]+0.241*[#  16]+0.240*[#   4]+0.240*[#   8]+0.009*[#   1]+
          +0.009*[#   5]+0.009*[#   9]+0.009*[#  13]+
    |psi|^2 = 0.997
==== e(   6) =    -4.20048 eV ==== 
     psi = 0.241*[#   4]+0.241*[#   8]+0.240*[#  12]+0.240*[#  16]+0.009*[#   1]+
          +0.009*[#   5]+0.009*[#   9]+0.009*[#  13]+
    |psi|^2 = 0.997
==== e(   7) =    -3.90298 eV ==== 
     psi = 0.250*[#  11]+0.250*[#  15]+0.249*[#   3]+0.249*[#   7]+
    |psi|^2 = 0.997
==== e(   8) =    -3.89100 eV ==== 
     psi = 0.250*[#   3]+0.250*[#   7]+0.249*[#  11]+0.249*[#  15]+
    |psi|^2 = 0.997
==== e(   9) =     3.11252 eV ==== 
     psi = 0.005*[#   4]+0.005*[#   8]+0.005*[#  12]+0.005*[#  16]+0.001*[#   1]+
          +0.001*[#   5]+0.001*[#   9]+0.001*[#  13]+
    |psi|^2 = 0.026
==== e(  10) =     3.51682 eV ==== 
     psi = 0.004*[#   2]+0.004*[#   6]+0.004*[#  10]+0.004*[#  14]+0.001*[#   4]+
          +0.001*[#   8]+0.001*[#  12]+0.001*[#  16]+
    |psi|^2 = 0.024
==== e(  11) =     4.24016 eV ==== 
     psi = 
    |psi|^2 = 0.005
==== e(  12) =     5.45126 eV ==== 
     psi = 0.001*[#   2]+0.001*[#   6]+0.001*[#  10]+0.001*[#  14]+
    |psi|^2 = 0.008

 k =   0.0000000000  0.1924500897  0.0000000000
==== e(   1) =   -19.36264 eV ==== 
     psi = 0.202*[#   1]+0.202*[#   5]+0.202*[#   9]+0.202*[#  13]+0.042*[#   4]+
          +0.042*[#   8]+0.042*[#  12]+0.042*[#  16]+
    |psi|^2 = 0.978
==== e(   2) =   -19.26329 eV ==== 
     psi = 0.205*[#   1]+0.205*[#   5]+0.205*[#   9]+0.205*[#  13]+0.041*[#   4]+
          +0.041*[#   8]+0.041*[#  12]+0.041*[#  16]+
    |psi|^2 = 0.984
==== e(   3) =    -7.67909 eV ==== 
     psi = 0.241*[#   2]+0.241*[#   6]+0.241*[#  10]+0.241*[#  14]+
    |psi|^2 = 0.964
==== e(   4) =    -6.93401 eV ==== 
     psi = 0.244*[#   2]+0.244*[#   6]+0.244*[#  10]+0.244*[#  14]+
    |psi|^2 = 0.977
==== e(   5) =    -5.84691 eV ==== 
     psi = 0.221*[#  12]+0.221*[#  16]+0.220*[#   4]+0.220*[#   8]+0.028*[#   1]+
          +0.028*[#   5]+0.028*[#   9]+0.028*[#  13]+
    |psi|^2 = 0.994
==== e(   6) =    -5.82295 eV ==== 
     psi = 0.221*[#   4]+0.221*[#   8]+0.221*[#  12]+0.221*[#  16]+0.028*[#   1]+
          +0.028*[#   5]+0.028*[#   9]+0.028*[#  13]+
    |psi|^2 = 0.996
==== e(   7) =    -4.69212 eV ==== 
     psi = 0.250*[#  11]+0.250*[#  15]+0.249*[#   3]+0.249*[#   7]+
    |psi|^2 = 0.997
==== e(   8) =    -4.67838 eV ==== 
     psi = 0.250*[#   3]+0.250*[#   7]+0.249*[#  11]+0.249*[#  15]+
    |psi|^2 = 0.997
==== e(   9) =     3.77368 eV ==== 
     psi = 0.010*[#   4]+0.010*[#   8]+0.010*[#  12]+0.010*[#  16]+
    |psi|^2 = 0.042
==== e(  10) =     4.18541 eV ==== 
     psi = 0.003*[#   2]+0.003*[#   4]+0.003*[#   6]+0.003*[#   8]+0.003*[#  10]+
          +0.003*[#  12]+0.003*[#  14]+0.003*[#  16]+
    |psi|^2 = 0.025
==== e(  11) =     4.91625 eV ==== 
     psi = 0.002*[#   4]+0.002*[#   8]+0.002*[#  12]+0.002*[#  16]+
    |psi|^2 = 0.007
==== e(  12) =     6.12181 eV ==== 
     psi = 0.001*[#   2]+0.001*[#   6]+
    |psi|^2 = 0.007

 k =   0.0000000000  0.2886751346  0.0000000000
==== e(   1) =   -18.55184 eV ==== 
     psi = 0.174*[#   1]+0.174*[#   5]+0.174*[#   9]+0.174*[#  13]+0.070*[#   4]+
          +0.070*[#   8]+0.070*[#  12]+0.070*[#  16]+
    |psi|^2 = 0.977
==== e(   2) =   -18.45759 eV ==== 
     psi = 0.177*[#   1]+0.177*[#   5]+0.177*[#   9]+0.177*[#  13]+0.069*[#   4]+
          +0.069*[#   8]+0.069*[#  12]+0.069*[#  16]+
    |psi|^2 = 0.983
==== e(   3) =    -7.93921 eV ==== 
     psi = 0.199*[#  12]+0.199*[#  16]+0.199*[#   4]+0.199*[#   8]+0.049*[#   1]+
          +0.049*[#   5]+0.049*[#   9]+0.049*[#  13]+
    |psi|^2 = 0.991
==== e(   4) =    -7.90439 eV ==== 
     psi = 0.200*[#   4]+0.200*[#   8]+0.200*[#  12]+0.200*[#  16]+0.048*[#   1]+
          +0.048*[#   5]+0.048*[#   9]+0.048*[#  13]+
    |psi|^2 = 0.994
==== e(   5) =    -6.71955 eV ==== 
     psi = 0.244*[#   2]+0.244*[#   6]+0.244*[#  10]+0.244*[#  14]+
    |psi|^2 = 0.978
==== e(   6) =    -6.00106 eV ==== 
     psi = 0.247*[#   2]+0.247*[#   6]+0.247*[#  10]+0.247*[#  14]+
    |psi|^2 = 0.987
==== e(   7) =    -5.56839 eV ==== 
     psi = 0.250*[#  11]+0.250*[#  15]+0.249*[#   3]+0.249*[#   7]+
    |psi|^2 = 0.997
==== e(   8) =    -5.55297 eV ==== 
     psi = 0.250*[#   3]+0.250*[#   7]+0.249*[#  11]+0.249*[#  15]+
    |psi|^2 = 0.997
==== e(   9) =     4.87144 eV ==== 
     psi = 0.008*[#   4]+0.008*[#   8]+0.008*[#  12]+0.008*[#  16]+
    |psi|^2 = 0.036
==== e(  10) =     5.28865 eV ==== 
     psi = 0.003*[#   2]+0.003*[#   4]+0.003*[#   6]+0.003*[#   8]+0.003*[#  10]+
          +0.003*[#  12]+0.003*[#  14]+0.003*[#  16]+
    |psi|^2 = 0.023
==== e(  11) =     6.03850 eV ==== 
     psi = 
    |psi|^2 = 0.009
==== e(  12) =     6.50669 eV ==== 
     psi = 0.223*[#   2]+0.223*[#   6]+0.223*[#  10]+0.223*[#  14]+
    |psi|^2 = 0.891

 k =   0.0000000000  0.3849001795  0.0000000000
==== e(   1) =   -17.43293 eV ==== 
     psi = 0.152*[#   1]+0.152*[#   5]+0.152*[#   9]+0.152*[#  13]+0.092*[#   4]+
          +0.092*[#   8]+0.092*[#  12]+0.092*[#  16]+
    |psi|^2 = 0.978
==== e(   2) =   -17.34546 eV ==== 
     psi = 0.155*[#   1]+0.155*[#   5]+0.155*[#   9]+0.155*[#  13]+0.091*[#   4]+
          +0.091*[#   8]+0.091*[#  12]+0.091*[#  16]+
    |psi|^2 = 0.984
==== e(   3) =   -10.13776 eV ==== 
     psi = 0.181*[#  12]+0.181*[#  16]+0.181*[#   4]+0.181*[#   8]+0.066*[#   1]+
          +0.066*[#   5]+0.066*[#   9]+0.066*[#  13]+
    |psi|^2 = 0.989
==== e(   4) =   -10.09186 eV ==== 
     psi = 0.182*[#   4]+0.182*[#   8]+0.182*[#  12]+0.182*[#  16]+0.066*[#   1]+
          +0.066*[#   5]+0.066*[#   9]+0.066*[#  13]+
    |psi|^2 = 0.991
==== e(   5) =    -6.29886 eV ==== 
     psi = 0.249*[#  11]+0.249*[#  15]+0.249*[#   3]+0.249*[#   7]+
    |psi|^2 = 0.996
==== e(   6) =    -6.28232 eV ==== 
     psi = 0.249*[#   3]+0.249*[#   7]+0.249*[#  11]+0.249*[#  15]+
    |psi|^2 = 0.997
==== e(   7) =    -5.43635 eV ==== 
     psi = 0.248*[#   2]+0.248*[#   6]+0.248*[#  10]+0.248*[#  14]+
    |psi|^2 = 0.991
==== e(   8) =    -4.76056 eV ==== 
     psi = 0.249*[#   2]+0.249*[#   6]+0.249*[#  10]+0.249*[#  14]+
    |psi|^2 = 0.994
==== e(   9) =     4.16228 eV ==== 
     psi = 0.233*[#   2]+0.233*[#   6]+0.233*[#  10]+0.233*[#  14]+
    |psi|^2 = 0.934
==== e(  10) =     4.64372 eV ==== 
     psi = 0.236*[#   2]+0.236*[#   6]+0.236*[#  10]+0.236*[#  14]+
    |psi|^2 = 0.943
==== e(  11) =     6.38361 eV ==== 
     psi = 0.004*[#   1]+0.004*[#   5]+0.004*[#   9]+0.004*[#  13]+0.001*[#   4]+
          +0.001*[#   8]+0.001*[#  12]+0.001*[#  16]+
    |psi|^2 = 0.023
==== e(  12) =     6.86089 eV ==== 
     psi = 0.004*[#   1]+0.004*[#   5]+0.004*[#   9]+0.004*[#  13]+0.003*[#   2]+
          +0.003*[#   6]+0.003*[#  10]+0.003*[#  14]+
    |psi|^2 = 0.028

 k =   0.0000000000  0.4811252243  0.0000000000
==== e(   1) =   -16.03754 eV ==== 
     psi = 0.139*[#   1]+0.139*[#   5]+0.139*[#   9]+0.139*[#  13]+0.106*[#   4]+
          +0.106*[#   8]+0.106*[#  12]+0.106*[#  16]+
    |psi|^2 = 0.982
==== e(   2) =   -15.95781 eV ==== 
     psi = 0.141*[#   1]+0.141*[#   5]+0.141*[#   9]+0.141*[#  13]+0.106*[#   4]+
          +0.106*[#   8]+0.106*[#  12]+0.106*[#  16]+
    |psi|^2 = 0.986
==== e(   3) =   -12.23470 eV ==== 
     psi = 0.169*[#   4]+0.169*[#   8]+0.169*[#  12]+0.169*[#  16]+0.077*[#   1]+
          +0.077*[#   5]+0.077*[#   9]+0.077*[#  13]+
    |psi|^2 = 0.985
==== e(   4) =   -12.17822 eV ==== 
     psi = 0.170*[#   4]+0.170*[#   8]+0.169*[#  12]+0.169*[#  16]+0.078*[#   1]+
          +0.078*[#   5]+0.078*[#   9]+0.078*[#  13]+
    |psi|^2 = 0.988
==== e(   5) =    -6.76992 eV ==== 
     psi = 0.249*[#  11]+0.249*[#  15]+0.249*[#   3]+0.249*[#   7]+
    |psi|^2 = 0.996
==== e(   6) =    -6.75288 eV ==== 
     psi = 0.249*[#   3]+0.249*[#   7]+0.249*[#  11]+0.249*[#  15]+
    |psi|^2 = 0.996
==== e(   7) =    -3.98762 eV ==== 
     psi = 0.249*[#   2]+0.249*[#   6]+0.249*[#  10]+0.249*[#  14]+
    |psi|^2 = 0.996
==== e(   8) =    -3.37959 eV ==== 
     psi = 0.249*[#   2]+0.249*[#   6]+0.249*[#  10]+0.249*[#  14]+
    |psi|^2 = 0.997
==== e(   9) =     1.97518 eV ==== 
     psi = 0.235*[#   2]+0.235*[#   6]+0.235*[#  10]+0.235*[#  14]+
    |psi|^2 = 0.940
==== e(  10) =     2.58257 eV ==== 
     psi = 0.238*[#   2]+0.238*[#   6]+0.238*[#  10]+0.238*[#  14]+
    |psi|^2 = 0.952
==== e(  11) =     6.88956 eV ==== 
     psi = 0.159*[#   1]+0.159*[#   5]+0.159*[#   9]+0.159*[#  13]+0.056*[#   4]+
          +0.056*[#   8]+0.056*[#  12]+0.056*[#  16]+
    |psi|^2 = 0.860
==== e(  12) =     7.03162 eV ==== 
     psi = 0.160*[#   1]+0.160*[#   5]+0.160*[#   9]+0.160*[#  13]+0.061*[#   4]+
          +0.061*[#   8]+0.061*[#  12]+0.061*[#  16]+
    |psi|^2 = 0.885

 k =   0.0000000000 -0.5773502692  0.0000000000
==== e(   1) =   -14.77669 eV ==== 
     psi = 0.160*[#   1]+0.160*[#   5]+0.160*[#   9]+0.160*[#  13]+0.088*[#   4]+
          +0.088*[#   8]+0.088*[#  12]+0.088*[#  16]+
    |psi|^2 = 0.992
==== e(   2) =   -14.70139 eV ==== 
     psi = 0.161*[#   1]+0.161*[#   5]+0.161*[#   9]+0.161*[#  13]+0.087*[#   4]+
          +0.087*[#   8]+0.087*[#  12]+0.087*[#  16]+
    |psi|^2 = 0.994
==== e(   3) =   -13.73709 eV ==== 
     psi = 0.188*[#   4]+0.188*[#   8]+0.188*[#  12]+0.188*[#  16]+0.056*[#   1]+
          +0.056*[#   5]+0.056*[#   9]+0.056*[#  13]+
    |psi|^2 = 0.976
==== e(   4) =   -13.67547 eV ==== 
     psi = 0.189*[#   4]+0.189*[#   8]+0.189*[#  12]+0.189*[#  16]+0.057*[#   1]+
          +0.057*[#   5]+0.057*[#   9]+0.057*[#  13]+
    |psi|^2 = 0.981
==== e(   5) =    -6.93170 eV ==== 
     psi = 0.249*[#  11]+0.249*[#  15]+0.249*[#   3]+0.249*[#   7]+
    |psi|^2 = 0.996
==== e(   6) =    -6.91447 eV ==== 
     psi = 0.249*[#   3]+0.249*[#   7]+0.249*[#  11]+0.249*[#  15]+
    |psi|^2 = 0.996
==== e(   7) =    -3.11529 eV ==== 
     psi = 0.249*[#   2]+0.249*[#   6]+0.249*[#  10]+0.249*[#  14]+
    |psi|^2 = 0.998
==== e(   8) =    -2.57292 eV ==== 
     psi = 0.249*[#   2]+0.249*[#   6]+0.249*[#  10]+0.249*[#  14]+
    |psi|^2 = 0.998
==== e(   9) =     0.84155 eV ==== 
     psi = 0.236*[#   2]+0.236*[#   6]+0.236*[#  10]+0.236*[#  14]+
    |psi|^2 = 0.944
==== e(  10) =     1.53349 eV ==== 
     psi = 0.238*[#   2]+0.238*[#   6]+0.238*[#  10]+0.238*[#  14]+
    |psi|^2 = 0.953
==== e(  11) =     6.81288 eV ==== 
     psi = 0.167*[#   1]+0.167*[#   5]+0.167*[#   9]+0.167*[#  13]+0.053*[#   4]+
          +0.053*[#   8]+0.053*[#  12]+0.053*[#  16]+
    |psi|^2 = 0.880
==== e(  12) =     6.95169 eV ==== 
     psi = 0.167*[#   1]+0.167*[#   5]+0.167*[#   9]+0.167*[#  13]+0.054*[#   4]+
          +0.054*[#   8]+0.054*[#  12]+0.054*[#  16]+
    |psi|^2 = 0.888

 k =   0.0833333333  0.1443375673  0.0000000000
==== e(   1) =   -19.52581 eV ==== 
     psi = 0.210*[#   1]+0.210*[#   5]+0.210*[#   9]+0.210*[#  13]+0.026*[#   4]+
          +0.026*[#   8]+0.026*[#  12]+0.026*[#  16]+0.009*[#   3]+0.009*[#   7]+
          +0.009*[#  11]+0.009*[#  15]+
    |psi|^2 = 0.978
==== e(   2) =   -19.42540 eV ==== 
     psi = 0.213*[#   1]+0.213*[#   5]+0.213*[#   9]+0.213*[#  13]+0.025*[#   4]+
          +0.025*[#   8]+0.025*[#  12]+0.025*[#  16]+0.008*[#   3]+0.008*[#   7]+
          +0.008*[#  11]+0.008*[#  15]+
    |psi|^2 = 0.985
==== e(   3) =    -7.87401 eV ==== 
     psi = 0.240*[#   2]+0.240*[#   6]+0.240*[#  10]+0.240*[#  14]+
    |psi|^2 = 0.960
==== e(   4) =    -7.12396 eV ==== 
     psi = 0.243*[#   2]+0.243*[#   6]+0.243*[#  10]+0.243*[#  14]+
    |psi|^2 = 0.974
==== e(   5) =    -5.24472 eV ==== 
     psi = 0.163*[#  12]+0.163*[#  16]+0.163*[#   4]+0.163*[#   8]+0.066*[#   3]+
          +0.066*[#   7]+0.066*[#  11]+0.066*[#  15]+0.020*[#   1]+0.020*[#   5]+
          +0.021*[#   9]+0.021*[#  13]+
    |psi|^2 = 0.998
==== e(   6) =    -5.22449 eV ==== 
     psi = 0.163*[#   4]+0.163*[#   8]+0.163*[#  12]+0.163*[#  16]+0.066*[#   3]+
          +0.066*[#   7]+0.066*[#  11]+0.066*[#  15]+0.021*[#   1]+0.021*[#   5]+
          +0.020*[#   9]+0.020*[#  13]+
    |psi|^2 = 0.998
==== e(   7) =    -4.57817 eV ==== 
     psi = 0.176*[#  11]+0.176*[#  15]+0.175*[#   3]+0.175*[#   7]+0.070*[#  12]+
          +0.070*[#  16]+0.070*[#   4]+0.070*[#   8]+0.003*[#   1]+0.003*[#   5]+
          +0.003*[#   9]+0.003*[#  13]+
    |psi|^2 = 0.994
==== e(   8) =    -4.56334 eV ==== 
     psi = 0.175*[#   3]+0.175*[#   7]+0.175*[#  11]+0.175*[#  15]+0.071*[#   4]+
          +0.071*[#   8]+0.071*[#  12]+0.071*[#  16]+0.003*[#   1]+0.003*[#   5]+
          +0.003*[#   9]+0.003*[#  13]+
    |psi|^2 = 0.996
==== e(   9) =     3.55366 eV ==== 
     psi = 0.007*[#   4]+0.007*[#   8]+0.007*[#  12]+0.007*[#  16]+0.002*[#   3]+
          +0.002*[#   7]+0.002*[#  11]+0.002*[#  15]+
    |psi|^2 = 0.040
==== e(  10) =     3.96293 eV ==== 
     psi = 0.003*[#   2]+0.003*[#   6]+0.003*[#  10]+0.003*[#  14]+0.002*[#   4]+
          +0.002*[#   8]+0.002*[#  12]+0.002*[#  16]+
    |psi|^2 = 0.025
==== e(  11) =     4.69112 eV ==== 
     psi = 0.001*[#   4]+0.001*[#   8]+0.001*[#  12]+0.001*[#  16]+
    |psi|^2 = 0.007
==== e(  12) =     5.89897 eV ==== 
     psi = 0.001*[#   2]+0.001*[#   6]+0.001*[#  10]+0.001*[#  14]+
    |psi|^2 = 0.008

 k =   0.0833333333  0.2405626122  0.0000000000
==== e(   1) =   -18.87523 eV ==== 
     psi = 0.183*[#   1]+0.183*[#   5]+0.183*[#   9]+0.183*[#  13]+0.054*[#   4]+
          +0.054*[#   8]+0.054*[#  12]+0.054*[#  16]+0.007*[#   3]+0.007*[#   7]+
          +0.007*[#  11]+0.007*[#  15]+
    |psi|^2 = 0.977
==== e(   2) =   -18.77895 eV ==== 
     psi = 0.186*[#   1]+0.186*[#   5]+0.186*[#   9]+0.186*[#  13]+0.053*[#   4]+
          +0.053*[#   8]+0.053*[#  12]+0.053*[#  16]+0.006*[#   3]+0.006*[#   7]+
          +0.006*[#  11]+0.006*[#  15]+
    |psi|^2 = 0.984
==== e(   3) =    -7.09950 eV ==== 
     psi = 0.243*[#   2]+0.243*[#   6]+0.243*[#  10]+0.243*[#  14]+
    |psi|^2 = 0.973
==== e(   4) =    -6.94904 eV ==== 
     psi = 0.196*[#  12]+0.196*[#  16]+0.195*[#   4]+0.195*[#   8]+0.039*[#   1]+
          +0.039*[#   5]+0.039*[#   9]+0.039*[#  13]+0.014*[#   3]+0.014*[#   7]+
          +0.014*[#  11]+0.014*[#  15]+
    |psi|^2 = 0.995
==== e(   5) =    -6.92008 eV ==== 
     psi = 0.196*[#   4]+0.196*[#   8]+0.196*[#  12]+0.196*[#  16]+0.039*[#   1]+
          +0.039*[#   5]+0.039*[#   9]+0.039*[#  13]+0.014*[#   3]+0.014*[#   7]+
          +0.014*[#  11]+0.014*[#  15]+
    |psi|^2 = 0.996
==== e(   6) =    -6.36974 eV ==== 
     psi = 0.246*[#   2]+0.246*[#   6]+0.246*[#  10]+0.246*[#  14]+
    |psi|^2 = 0.984
==== e(   7) =    -5.57211 eV ==== 
     psi = 0.226*[#  11]+0.226*[#  15]+0.226*[#   3]+0.226*[#   7]+0.016*[#   4]+
          +0.016*[#   8]+0.016*[#  12]+0.016*[#  16]+0.006*[#   1]+0.006*[#   5]+
          +0.006*[#   9]+0.006*[#  13]+
    |psi|^2 = 0.993
==== e(   8) =    -5.55388 eV ==== 
     psi = 0.226*[#   3]+0.226*[#   7]+0.226*[#  11]+0.226*[#  15]+0.017*[#   4]+
          +0.017*[#   8]+0.017*[#  12]+0.017*[#  16]+0.006*[#   1]+0.006*[#   5]+
          +0.006*[#   9]+0.006*[#  13]+
    |psi|^2 = 0.995
==== e(   9) =     4.43458 eV ==== 
     psi = 0.009*[#   4]+0.009*[#   8]+0.009*[#  12]+0.009*[#  16]+0.001*[#   3]+
          +0.001*[#   7]+0.001*[#  11]+0.001*[#  15]+
    |psi|^2 = 0.043
==== e(  10) =     4.85222 eV ==== 
     psi = 0.003*[#   4]+0.003*[#   8]+0.003*[#  12]+0.003*[#  16]+0.002*[#   2]+
          +0.002*[#   6]+0.002*[#  10]+0.002*[#  14]+
    |psi|^2 = 0.022
==== e(  11) =     5.59251 eV ==== 
     psi = 0.001*[#   4]+0.001*[#   8]+0.001*[#  12]+0.001*[#  16]+
    |psi|^2 = 0.007
==== e(  12) =     6.79100 eV ==== 
     psi = 0.001*[#   2]+0.001*[#   6]+0.001*[#  10]+0.001*[#  14]+
    |psi|^2 = 0.007

 k =   0.0833333333  0.3367876570  0.0000000000
==== e(   1) =   -17.91020 eV ==== 
     psi = 0.160*[#   1]+0.160*[#   5]+0.160*[#   9]+0.160*[#  13]+0.079*[#   4]+
          +0.079*[#   8]+0.079*[#  12]+0.079*[#  16]+0.005*[#   3]+0.005*[#   7]+
          +0.005*[#  11]+0.005*[#  15]+
    |psi|^2 = 0.977
==== e(   2) =   -17.81989 eV ==== 
     psi = 0.162*[#   1]+0.162*[#   5]+0.162*[#   9]+0.162*[#  13]+0.079*[#   4]+
          +0.079*[#   8]+0.078*[#  12]+0.078*[#  16]+0.005*[#   3]+0.005*[#   7]+
          +0.005*[#  11]+0.005*[#  15]+
    |psi|^2 = 0.983
==== e(   3) =    -9.01704 eV ==== 
     psi = 0.187*[#  12]+0.187*[#  16]+0.186*[#   4]+0.186*[#   8]+0.057*[#   1]+
          +0.057*[#   5]+0.058*[#   9]+0.058*[#  13]+0.004*[#   3]+0.004*[#   7]+
          +0.004*[#  11]+0.004*[#  15]+
    |psi|^2 = 0.991
==== e(   4) =    -8.97720 eV ==== 
     psi = 0.187*[#   4]+0.187*[#   8]+0.187*[#  12]+0.187*[#  16]+0.057*[#   1]+
          +0.057*[#   5]+0.057*[#   9]+0.057*[#  13]+0.004*[#   3]+0.004*[#   7]+
          +0.004*[#  11]+0.004*[#  15]+
    |psi|^2 = 0.993
==== e(   5) =    -6.45504 eV ==== 
     psi = 0.237*[#  11]+0.237*[#  15]+0.236*[#   3]+0.236*[#   7]+0.007*[#   1]+
          +0.007*[#   5]+0.007*[#   9]+0.007*[#  13]+0.005*[#   4]+0.005*[#   8]+
          +0.005*[#  12]+0.005*[#  16]+
    |psi|^2 = 0.994
==== e(   6) =    -6.43468 eV ==== 
     psi = 0.237*[#   3]+0.237*[#   7]+0.236*[#  11]+0.236*[#  15]+0.007*[#   1]+
          +0.007*[#   5]+0.007*[#   9]+0.007*[#  13]+0.005*[#   4]+0.005*[#   8]+
          +0.005*[#  12]+0.005*[#  16]+
    |psi|^2 = 0.995
==== e(   7) =    -5.97177 eV ==== 
     psi = 0.246*[#   2]+0.246*[#   6]+0.246*[#  10]+0.246*[#  14]+
    |psi|^2 = 0.987
==== e(   8) =    -5.27622 eV ==== 
     psi = 0.248*[#   2]+0.248*[#   6]+0.248*[#  10]+0.248*[#  14]+
    |psi|^2 = 0.992
==== e(   9) =     5.21307 eV ==== 
     psi = 0.236*[#   2]+0.236*[#   6]+0.236*[#  10]+0.236*[#  14]+
    |psi|^2 = 0.942
==== e(  10) =     5.59942 eV ==== 
     psi = 0.227*[#   2]+0.227*[#   6]+0.227*[#  10]+0.227*[#  14]+
    |psi|^2 = 0.909
==== e(  11) =     5.74924 eV ==== 
     psi = 0.006*[#   4]+0.006*[#   8]+0.006*[#  12]+0.006*[#  16]+
    |psi|^2 = 0.030
==== e(  12) =     6.21480 eV ==== 
     psi = 0.014*[#   2]+0.014*[#   6]+0.014*[#  10]+0.014*[#  14]+0.002*[#   4]+
          +0.002*[#   8]+0.002*[#  12]+0.002*[#  16]+
    |psi|^2 = 0.065

 k =   0.0833333333  0.4330127019  0.0000000000
==== e(   1) =   -16.64988 eV ==== 
     psi = 0.143*[#   1]+0.143*[#   5]+0.143*[#   9]+0.143*[#  13]+0.098*[#   4]+
          +0.098*[#   8]+0.098*[#  12]+0.098*[#  16]+0.004*[#   3]+0.004*[#   7]+
          +0.004*[#  11]+0.004*[#  15]+
    |psi|^2 = 0.979
==== e(   2) =   -16.56694 eV ==== 
     psi = 0.145*[#   1]+0.145*[#   5]+0.145*[#   9]+0.145*[#  13]+0.098*[#   4]+
          +0.098*[#   8]+0.098*[#  12]+0.098*[#  16]+0.004*[#   3]+0.004*[#   7]+
          +0.004*[#  11]+0.004*[#  15]+
    |psi|^2 = 0.985
==== e(   3) =   -11.13612 eV ==== 
     psi = 0.172*[#   4]+0.172*[#   8]+0.172*[#  12]+0.172*[#  16]+0.073*[#   1]+
          +0.073*[#   5]+0.073*[#   9]+0.073*[#  13]+0.002*[#   3]+0.002*[#   7]+
          +0.002*[#  11]+0.002*[#  15]+
    |psi|^2 = 0.988
==== e(   4) =   -11.08534 eV ==== 
     psi = 0.173*[#   4]+0.173*[#   8]+0.173*[#  12]+0.173*[#  16]+0.073*[#   1]+
          +0.073*[#   5]+0.073*[#   9]+0.073*[#  13]+0.002*[#   3]+0.002*[#   7]+
          +0.002*[#  11]+0.002*[#  15]+
    |psi|^2 = 0.991
==== e(   5) =    -7.08745 eV ==== 
     psi = 0.239*[#  11]+0.239*[#  15]+0.239*[#   3]+0.239*[#   7]+0.008*[#   1]+
          +0.008*[#   5]+0.008*[#   9]+0.008*[#  13]+0.002*[#   4]+0.002*[#   8]+
          +0.002*[#  12]+0.002*[#  16]+
    |psi|^2 = 0.994
==== e(   6) =    -7.06600 eV ==== 
     psi = 0.239*[#   3]+0.239*[#   7]+0.239*[#  11]+0.239*[#  15]+0.008*[#   1]+
          +0.008*[#   5]+0.007*[#   9]+0.007*[#  13]+0.002*[#   4]+0.002*[#   8]+
          +0.002*[#  12]+0.002*[#  16]+
    |psi|^2 = 0.995
==== e(   7) =    -4.57268 eV ==== 
     psi = 0.249*[#   2]+0.249*[#   6]+0.249*[#  10]+0.249*[#  14]+
    |psi|^2 = 0.995
==== e(   8) =    -3.93058 eV ==== 
     psi = 0.249*[#   2]+0.249*[#   6]+0.249*[#  10]+0.249*[#  14]+
    |psi|^2 = 0.996
==== e(   9) =     2.95834 eV ==== 
     psi = 0.236*[#   2]+0.236*[#   6]+0.236*[#  10]+0.236*[#  14]+
    |psi|^2 = 0.945
==== e(  10) =     3.48024 eV ==== 
     psi = 0.239*[#   2]+0.239*[#   6]+0.239*[#  10]+0.239*[#  14]+
    |psi|^2 = 0.957
==== e(  11) =     7.42688 eV ==== 
     psi = 0.028*[#   1]+0.028*[#   5]+0.028*[#   9]+0.028*[#  13]+0.003*[#   4]+
          +0.003*[#   8]+0.003*[#  12]+0.003*[#  16]+0.002*[#   3]+0.002*[#   7]+
          +0.002*[#  11]+0.002*[#  15]+
    |psi|^2 = 0.130
==== e(  12) =     7.77995 eV ==== 
     psi = 0.113*[#   1]+0.113*[#   5]+0.113*[#   9]+0.113*[#  13]+0.067*[#   4]+
          +0.067*[#   8]+0.067*[#  12]+0.067*[#  16]+0.006*[#   3]+0.006*[#   7]+
          +0.006*[#  11]+0.006*[#  15]+
    |psi|^2 = 0.743

 k =   0.0833333333  0.5292377468  0.0000000000
==== e(   1) =   -15.17156 eV ==== 
     psi = 0.139*[#   1]+0.139*[#   5]+0.139*[#   9]+0.139*[#  13]+0.103*[#   4]+
          +0.103*[#   8]+0.103*[#  12]+0.103*[#  16]+0.004*[#   3]+0.004*[#   7]+
          +0.004*[#  11]+0.004*[#  15]+
    |psi|^2 = 0.986
==== e(   2) =   -15.09611 eV ==== 
     psi = 0.140*[#   1]+0.140*[#   5]+0.140*[#   9]+0.140*[#  13]+0.103*[#   4]+
          +0.103*[#   8]+0.103*[#  12]+0.103*[#  16]+0.004*[#   3]+0.004*[#   7]+
          +0.004*[#  11]+0.004*[#  15]+
    |psi|^2 = 0.989
==== e(   3) =   -13.07443 eV ==== 
     psi = 0.169*[#   4]+0.169*[#   8]+0.169*[#  12]+0.169*[#  16]+0.075*[#   1]+
          +0.075*[#   5]+0.075*[#   9]+0.075*[#  13]+0.001*[#   3]+0.001*[#   7]+
          +0.001*[#  11]+0.001*[#  15]+
    |psi|^2 = 0.982
==== e(   4) =   -13.01437 eV ==== 
     psi = 0.170*[#   4]+0.170*[#   8]+0.170*[#  12]+0.170*[#  16]+0.076*[#   1]+
          +0.076*[#   5]+0.076*[#   9]+0.076*[#  13]+0.001*[#   3]+0.001*[#   7]+
          +0.001*[#  11]+0.001*[#  15]+
    |psi|^2 = 0.986
==== e(   5) =    -7.41469 eV ==== 
     psi = 0.239*[#  11]+0.239*[#  15]+0.239*[#   3]+0.239*[#   7]+0.008*[#   1]+
          +0.008*[#   5]+0.008*[#   9]+0.008*[#  13]+0.002*[#   4]+0.002*[#   8]+
          +0.002*[#  12]+0.002*[#  16]+
    |psi|^2 = 0.994
==== e(   6) =    -7.39268 eV ==== 
     psi = 0.240*[#   3]+0.240*[#   7]+0.239*[#  11]+0.239*[#  15]+0.008*[#   1]+
          +0.008*[#   5]+0.008*[#   9]+0.008*[#  13]+0.002*[#   4]+0.002*[#   8]+
          +0.002*[#  12]+0.002*[#  16]+
    |psi|^2 = 0.995
==== e(   7) =    -3.23158 eV ==== 
     psi = 0.249*[#   2]+0.249*[#   6]+0.249*[#  10]+0.249*[#  14]+
    |psi|^2 = 0.997
==== e(   8) =    -2.66822 eV ==== 
     psi = 0.249*[#   2]+0.249*[#   6]+0.249*[#  10]+0.249*[#  14]+
    |psi|^2 = 0.997
==== e(   9) =     1.14233 eV ==== 
     psi = 0.237*[#   2]+0.237*[#   6]+0.237*[#  10]+0.237*[#  14]+
    |psi|^2 = 0.949
==== e(  10) =     1.77899 eV ==== 
     psi = 0.240*[#   2]+0.240*[#   6]+0.240*[#  10]+0.240*[#  14]+
    |psi|^2 = 0.958
==== e(  11) =     7.53885 eV ==== 
     psi = 0.155*[#   1]+0.155*[#   5]+0.155*[#   9]+0.155*[#  13]+0.053*[#   4]+
          +0.053*[#   8]+0.053*[#  12]+0.053*[#  16]+0.008*[#   3]+0.008*[#   7]+
          +0.008*[#  11]+0.008*[#  15]+
    |psi|^2 = 0.862
==== e(  12) =     7.68929 eV ==== 
     psi = 0.156*[#   1]+0.156*[#   5]+0.156*[#   9]+0.156*[#  13]+0.055*[#   4]+
          +0.055*[#   8]+0.055*[#  12]+0.055*[#  16]+0.008*[#   3]+0.008*[#   7]+
          +0.008*[#  11]+0.008*[#  15]+
    |psi|^2 = 0.876

 k =   0.1666666667  0.2886751346  0.0000000000
==== e(   1) =   -18.07038 eV ==== 
     psi = 0.163*[#   1]+0.163*[#   5]+0.163*[#   9]+0.163*[#  13]+0.061*[#   4]+
          +0.061*[#   8]+0.061*[#  12]+0.061*[#  16]+0.021*[#   3]+0.021*[#   7]+
          +0.021*[#  11]+0.021*[#  15]+
    |psi|^2 = 0.977
==== e(   2) =   -17.97911 eV ==== 
     psi = 0.165*[#   1]+0.165*[#   5]+0.165*[#   9]+0.165*[#  13]+0.060*[#   4]+
          +0.060*[#   8]+0.060*[#  12]+0.060*[#  16]+0.020*[#   3]+0.020*[#   7]+
          +0.020*[#  11]+0.020*[#  15]+
    |psi|^2 = 0.983
==== e(   3) =    -8.27564 eV ==== 
     psi = 0.130*[#  12]+0.130*[#  16]+0.130*[#   4]+0.130*[#   8]+0.066*[#   3]+
          +0.066*[#   7]+0.066*[#  11]+0.066*[#  15]+0.053*[#   1]+0.053*[#   5]+
          +0.053*[#   9]+0.053*[#  13]+
    |psi|^2 = 0.996
==== e(   4) =    -8.24057 eV ==== 
     psi = 0.130*[#   4]+0.130*[#   8]+0.130*[#  12]+0.130*[#  16]+0.066*[#   3]+
          +0.066*[#   7]+0.066*[#  11]+0.066*[#  15]+0.053*[#   1]+0.053*[#   5]+
          +0.053*[#   9]+0.053*[#  13]+
    |psi|^2 = 0.997
==== e(   5) =    -6.93013 eV ==== 
     psi = 0.158*[#  11]+0.158*[#  15]+0.158*[#   3]+0.158*[#   7]+0.076*[#   4]+
          +0.076*[#   8]+0.076*[#  12]+0.076*[#  16]+0.013*[#   1]+0.013*[#   5]+
          +0.014*[#   9]+0.014*[#  13]+
    |psi|^2 = 0.988
==== e(   6) =    -6.90442 eV ==== 
     psi = 0.158*[#   3]+0.158*[#   7]+0.157*[#  11]+0.157*[#  15]+0.077*[#   4]+
          +0.077*[#   8]+0.077*[#  12]+0.077*[#  16]+0.013*[#   1]+0.013*[#   5]+
          +0.013*[#   9]+0.013*[#  13]+
    |psi|^2 = 0.992
==== e(   7) =    -6.15286 eV ==== 
     psi = 0.246*[#   2]+0.246*[#   6]+0.246*[#  10]+0.246*[#  14]+
    |psi|^2 = 0.985
==== e(   8) =    -5.45081 eV ==== 
     psi = 0.248*[#   2]+0.248*[#   6]+0.248*[#  10]+0.248*[#  14]+
    |psi|^2 = 0.991
==== e(   9) =     5.53281 eV ==== 
     psi = 0.006*[#   4]+0.006*[#   8]+0.006*[#  12]+0.006*[#  16]+0.002*[#   3]+
          +0.002*[#   7]+0.002*[#  11]+0.002*[#  15]+
    |psi|^2 = 0.034
==== e(  10) =     5.68308 eV ==== 
     psi = 0.241*[#   2]+0.241*[#   6]+0.241*[#  10]+0.241*[#  14]+
    |psi|^2 = 0.966
==== e(  11) =     5.95880 eV ==== 
     psi = 0.002*[#   4]+0.002*[#   8]+0.002*[#  12]+0.002*[#  16]+0.001*[#   2]+
          +0.001*[#   6]+0.001*[#  10]+0.001*[#  14]+
    |psi|^2 = 0.016
==== e(  12) =     6.03495 eV ==== 
     psi = 0.243*[#   2]+0.243*[#   6]+0.243*[#  10]+0.243*[#  14]+
    |psi|^2 = 0.971

 k =   0.1666666667  0.3849001795  0.0000000000
==== e(   1) =   -16.96245 eV ==== 
     psi = 0.145*[#   1]+0.145*[#   5]+0.145*[#   9]+0.145*[#  13]+0.083*[#   4]+
          +0.083*[#   8]+0.083*[#  12]+0.083*[#  16]+0.016*[#   3]+0.016*[#   7]+
          +0.016*[#  11]+0.016*[#  15]+
    |psi|^2 = 0.979
==== e(   2) =   -16.87783 eV ==== 
     psi = 0.147*[#   1]+0.147*[#   5]+0.147*[#   9]+0.147*[#  13]+0.083*[#   4]+
          +0.083*[#   8]+0.083*[#  12]+0.083*[#  16]+0.016*[#   3]+0.016*[#   7]+
          +0.016*[#  11]+0.016*[#  15]+
    |psi|^2 = 0.984
==== e(   3) =    -9.99968 eV ==== 
     psi = 0.163*[#  12]+0.163*[#  16]+0.163*[#   4]+0.163*[#   8]+0.068*[#   1]+
          +0.068*[#   5]+0.068*[#   9]+0.068*[#  13]+0.017*[#   3]+0.017*[#   7]+
          +0.017*[#  11]+0.017*[#  15]+
    |psi|^2 = 0.993
==== e(   4) =    -9.95544 eV ==== 
     psi = 0.164*[#   4]+0.164*[#   8]+0.164*[#  12]+0.164*[#  16]+0.068*[#   1]+
          +0.068*[#   5]+0.068*[#   9]+0.068*[#  13]+0.017*[#   3]+0.017*[#   7]+
          +0.017*[#  11]+0.017*[#  15]+
    |psi|^2 = 0.994
==== e(   5) =    -7.98295 eV ==== 
     psi = 0.208*[#  11]+0.208*[#  15]+0.208*[#   3]+0.208*[#   7]+0.022*[#   4]+
          +0.022*[#   8]+0.022*[#  12]+0.022*[#  16]+0.018*[#   1]+0.018*[#   5]+
          +0.018*[#   9]+0.018*[#  13]+
    |psi|^2 = 0.990
==== e(   6) =    -7.95300 eV ==== 
     psi = 0.209*[#   3]+0.209*[#   7]+0.208*[#  11]+0.208*[#  15]+0.022*[#   4]+
          +0.022*[#   8]+0.022*[#  12]+0.022*[#  16]+0.017*[#   1]+0.017*[#   5]+
          +0.017*[#   9]+0.017*[#  13]+
    |psi|^2 = 0.992
==== e(   7) =    -4.88483 eV ==== 
     psi = 0.248*[#   2]+0.248*[#   6]+0.248*[#  10]+0.248*[#  14]+
    |psi|^2 = 0.994
==== e(   8) =    -4.22549 eV ==== 
     psi = 0.249*[#   2]+0.249*[#   6]+0.249*[#  10]+0.249*[#  14]+
    |psi|^2 = 0.996
==== e(   9) =     3.70990 eV ==== 
     psi = 0.242*[#   2]+0.242*[#   6]+0.242*[#  10]+0.242*[#  14]+
    |psi|^2 = 0.967
==== e(  10) =     4.13351 eV ==== 
     psi = 0.243*[#   2]+0.243*[#   6]+0.243*[#  10]+0.243*[#  14]+
    |psi|^2 = 0.972
==== e(  11) =     7.05560 eV ==== 
     psi = 0.003*[#   4]+0.003*[#   8]+0.003*[#  12]+0.003*[#  16]+
    |psi|^2 = 0.018
==== e(  12) =     7.49198 eV ==== 
     psi = 0.001*[#   4]+0.001*[#   8]+0.001*[#  12]+0.001*[#  16]+
    |psi|^2 = 0.009

 k =   0.1666666667  0.4811252243  0.0000000000
==== e(   1) =   -15.58701 eV ==== 
     psi = 0.133*[#   1]+0.133*[#   5]+0.133*[#   9]+0.133*[#  13]+0.098*[#   4]+
          +0.098*[#   8]+0.098*[#  12]+0.098*[#  16]+0.015*[#   3]+0.015*[#   7]+
          +0.015*[#  11]+0.015*[#  15]+
    |psi|^2 = 0.983
==== e(   2) =   -15.51017 eV ==== 
     psi = 0.134*[#   1]+0.134*[#   5]+0.134*[#   9]+0.134*[#  13]+0.098*[#   4]+
          +0.098*[#   8]+0.098*[#  12]+0.098*[#  16]+0.014*[#   3]+0.014*[#   7]+
          +0.014*[#  11]+0.014*[#  15]+
    |psi|^2 = 0.987
==== e(   3) =   -11.90738 eV ==== 
     psi = 0.161*[#   4]+0.161*[#   8]+0.161*[#  12]+0.161*[#  16]+0.079*[#   1]+
          +0.079*[#   5]+0.079*[#   9]+0.079*[#  13]+0.007*[#   3]+0.007*[#   7]+
          +0.007*[#  11]+0.007*[#  15]+
    |psi|^2 = 0.988
==== e(   4) =   -11.85305 eV ==== 
     psi = 0.162*[#   4]+0.162*[#   8]+0.162*[#  12]+0.162*[#  16]+0.079*[#   1]+
          +0.079*[#   5]+0.079*[#   9]+0.079*[#  13]+0.007*[#   3]+0.007*[#   7]+
          +0.007*[#  11]+0.007*[#  15]+
    |psi|^2 = 0.990
==== e(   5) =    -8.55708 eV ==== 
     psi = 0.219*[#  11]+0.219*[#  15]+0.219*[#   3]+0.219*[#   7]+0.020*[#   1]+
          +0.020*[#   5]+0.020*[#   9]+0.020*[#  13]+0.009*[#   4]+0.009*[#   8]+
          +0.009*[#  12]+0.009*[#  16]+
    |psi|^2 = 0.991
==== e(   6) =    -8.52543 eV ==== 
     psi = 0.219*[#   3]+0.219*[#   7]+0.219*[#  11]+0.219*[#  15]+0.020*[#   1]+
          +0.020*[#   5]+0.020*[#   9]+0.020*[#  13]+0.009*[#   4]+0.009*[#   8]+
          +0.009*[#  12]+0.009*[#  16]+
    |psi|^2 = 0.993
==== e(   7) =    -3.43380 eV ==== 
     psi = 0.249*[#   2]+0.249*[#   6]+0.249*[#  10]+0.249*[#  14]+
    |psi|^2 = 0.996
==== e(   8) =    -2.83829 eV ==== 
     psi = 0.249*[#   2]+0.249*[#   6]+0.249*[#  10]+0.249*[#  14]+
    |psi|^2 = 0.997
==== e(   9) =     1.76087 eV ==== 
     psi = 0.241*[#   2]+0.241*[#   6]+0.241*[#  10]+0.241*[#  14]+
    |psi|^2 = 0.966
==== e(  10) =     2.27841 eV ==== 
     psi = 0.243*[#   2]+0.243*[#   6]+0.243*[#  10]+0.243*[#  14]+
    |psi|^2 = 0.973
==== e(  11) =     8.94877 eV ==== 
     psi = 0.012*[#   1]+0.012*[#   5]+0.012*[#   9]+0.012*[#  13]+0.003*[#   3]+
          +0.003*[#   7]+0.003*[#  11]+0.003*[#  15]+
    |psi|^2 = 0.059
==== e(  12) =     9.40515 eV ==== 
     psi = 0.006*[#   1]+0.006*[#   5]+0.006*[#   9]+0.006*[#  13]+0.001*[#   3]+
          +0.001*[#   7]+0.001*[#  11]+0.001*[#  15]+
    |psi|^2 = 0.035

 k =   0.1666666667  0.5773502692  0.0000000000
==== e(   1) =   -14.35500 eV ==== 
     psi = 0.148*[#   1]+0.148*[#   5]+0.148*[#   9]+0.148*[#  13]+0.080*[#   4]+
          +0.080*[#   8]+0.080*[#  12]+0.080*[#  16]+0.020*[#   3]+0.020*[#   7]+
          +0.020*[#  11]+0.020*[#  15]+
    |psi|^2 = 0.992
==== e(   2) =   -14.28297 eV ==== 
     psi = 0.149*[#   1]+0.149*[#   5]+0.149*[#   9]+0.149*[#  13]+0.080*[#   4]+
          +0.080*[#   8]+0.080*[#  12]+0.080*[#  16]+0.019*[#   3]+0.019*[#   7]+
          +0.019*[#  11]+0.019*[#  15]+
    |psi|^2 = 0.993
==== e(   3) =   -13.33901 eV ==== 
     psi = 0.182*[#   4]+0.182*[#   8]+0.182*[#  12]+0.182*[#  16]+0.063*[#   1]+
          +0.063*[#   5]+0.063*[#   9]+0.063*[#  13]+
    |psi|^2 = 0.980
==== e(   4) =   -13.27885 eV ==== 
     psi = 0.182*[#   4]+0.182*[#   8]+0.182*[#  12]+0.182*[#  16]+0.064*[#   1]+
          +0.064*[#   5]+0.064*[#   9]+0.064*[#  13]+
    |psi|^2 = 0.984
==== e(   5) =    -8.74128 eV ==== 
     psi = 0.221*[#  11]+0.221*[#  15]+0.220*[#   3]+0.220*[#   7]+0.021*[#   1]+
          +0.021*[#   5]+0.021*[#   9]+0.021*[#  13]+0.007*[#   4]+0.007*[#   8]+
          +0.007*[#  12]+0.007*[#  16]+
    |psi|^2 = 0.991
==== e(   6) =    -8.70916 eV ==== 
     psi = 0.221*[#   3]+0.221*[#   7]+0.221*[#  11]+0.221*[#  15]+0.021*[#   1]+
          +0.021*[#   5]+0.021*[#   9]+0.021*[#  13]+0.007*[#   4]+0.007*[#   8]+
          +0.007*[#  12]+0.007*[#  16]+
    |psi|^2 = 0.993
==== e(   7) =    -2.51512 eV ==== 
     psi = 0.249*[#   2]+0.249*[#   6]+0.249*[#  10]+0.249*[#  14]+
    |psi|^2 = 0.998
==== e(   8) =    -1.98171 eV ==== 
     psi = 0.249*[#   2]+0.249*[#   6]+0.249*[#  10]+0.249*[#  14]+
    |psi|^2 = 0.997
==== e(   9) =     0.66130 eV ==== 
     psi = 0.241*[#   2]+0.241*[#   6]+0.241*[#  10]+0.241*[#  14]+
    |psi|^2 = 0.965
==== e(  10) =     1.25377 eV ==== 
     psi = 0.243*[#   2]+0.243*[#   6]+0.243*[#  10]+0.243*[#  14]+
    |psi|^2 = 0.972
==== e(  11) =     9.29635 eV ==== 
     psi = 0.134*[#   1]+0.134*[#   5]+0.134*[#   9]+0.134*[#  13]+0.050*[#   4]+
          +0.050*[#   8]+0.050*[#  12]+0.050*[#  16]+0.020*[#   3]+0.020*[#   7]+
          +0.020*[#  11]+0.020*[#  15]+
    |psi|^2 = 0.813
==== e(  12) =     9.50914 eV ==== 
     psi = 0.136*[#   1]+0.136*[#   5]+0.136*[#   9]+0.136*[#  13]+0.053*[#   4]+
          +0.053*[#   8]+0.053*[#  12]+0.053*[#  16]+0.021*[#   3]+0.021*[#   7]+
          +0.021*[#  11]+0.021*[#  15]+
    |psi|^2 = 0.840

 k =   0.2500000000  0.4330127019  0.0000000000
==== e(   1) =   -15.73448 eV ==== 
     psi = 0.132*[#   1]+0.132*[#   5]+0.132*[#   9]+0.132*[#  13]+0.083*[#   4]+
          +0.083*[#   8]+0.083*[#  12]+0.083*[#  16]+0.030*[#   3]+0.030*[#   7]+
          +0.030*[#  11]+0.030*[#  15]+
    |psi|^2 = 0.982
==== e(   2) =   -15.65706 eV ==== 
     psi = 0.134*[#   1]+0.134*[#   5]+0.134*[#   9]+0.134*[#  13]+0.083*[#   4]+
          +0.083*[#   8]+0.083*[#  12]+0.083*[#  16]+0.030*[#   3]+0.030*[#   7]+
          +0.030*[#  11]+0.030*[#  15]+
    |psi|^2 = 0.986
==== e(   3) =   -11.03371 eV ==== 
     psi = 0.097*[#   4]+0.097*[#   8]+0.097*[#  12]+0.097*[#  16]+0.087*[#   1]+
          +0.087*[#   5]+0.087*[#   9]+0.087*[#  13]+0.065*[#   3]+0.065*[#   7]+
          +0.065*[#  11]+0.065*[#  15]+
    |psi|^2 = 0.994
==== e(   4) =   -10.98387 eV ==== 
     psi = 0.097*[#   4]+0.097*[#   8]+0.097*[#  12]+0.097*[#  16]+0.087*[#   1]+
          +0.087*[#   5]+0.087*[#   9]+0.087*[#  13]+0.065*[#   3]+0.065*[#   7]+
          +0.065*[#  11]+0.065*[#  15]+
    |psi|^2 = 0.995
==== e(   5) =    -9.46240 eV ==== 
     psi = 0.149*[#  11]+0.149*[#  15]+0.149*[#   3]+0.149*[#   7]+0.080*[#   4]+
          +0.080*[#   8]+0.080*[#  12]+0.080*[#  16]+0.017*[#   1]+0.017*[#   5]+
          +0.017*[#   9]+0.017*[#  13]+
    |psi|^2 = 0.986
==== e(   6) =    -9.42456 eV ==== 
     psi = 0.149*[#   3]+0.149*[#   7]+0.149*[#  11]+0.149*[#  15]+0.081*[#   4]+
          +0.081*[#   8]+0.081*[#  12]+0.081*[#  16]+0.017*[#   1]+0.017*[#   5]+
          +0.017*[#   9]+0.017*[#  13]+
    |psi|^2 = 0.989
==== e(   7) =    -3.52355 eV ==== 
     psi = 0.249*[#   2]+0.249*[#   6]+0.249*[#  10]+0.249*[#  14]+
    |psi|^2 = 0.996
==== e(   8) =    -2.91527 eV ==== 
     psi = 0.249*[#   2]+0.249*[#   6]+0.249*[#  10]+0.249*[#  14]+
    |psi|^2 = 0.996
==== e(   9) =     2.09042 eV ==== 
     psi = 0.245*[#   2]+0.245*[#   6]+0.245*[#  10]+0.245*[#  14]+
    |psi|^2 = 0.981
==== e(  10) =     2.53814 eV ==== 
     psi = 0.246*[#   2]+0.246*[#   6]+0.246*[#  10]+0.246*[#  14]+
    |psi|^2 = 0.983
==== e(  11) =     8.76168 eV ==== 
     psi = 0.001*[#   1]+0.001*[#   4]+0.001*[#   5]+0.001*[#   8]+0.001*[#   9]+
          +0.001*[#  12]+0.001*[#  13]+0.001*[#  16]+
    |psi|^2 = 0.011
==== e(  12) =     9.16188 eV ==== 
     psi = 
    |psi|^2 = 0.004

 k =   0.2500000000  0.5292377468  0.0000000000
==== e(   1) =   -14.31329 eV ==== 
     psi = 0.126*[#   1]+0.126*[#   5]+0.126*[#   9]+0.126*[#  13]+0.090*[#   4]+
          +0.090*[#   8]+0.090*[#  12]+0.090*[#  16]+0.031*[#   3]+0.031*[#   7]+
          +0.031*[#  11]+0.031*[#  15]+
    |psi|^2 = 0.988
==== e(   2) =   -14.24345 eV ==== 
     psi = 0.127*[#   1]+0.127*[#   5]+0.127*[#   9]+0.127*[#  13]+0.090*[#   4]+
          +0.090*[#   8]+0.090*[#  12]+0.090*[#  16]+0.031*[#   3]+0.031*[#   7]+
          +0.031*[#  11]+0.031*[#  15]+
    |psi|^2 = 0.991
==== e(   3) =   -12.45317 eV ==== 
     psi = 0.139*[#   4]+0.139*[#   8]+0.140*[#  12]+0.140*[#  16]+0.092*[#   1]+
          +0.092*[#   5]+0.092*[#   9]+0.092*[#  13]+0.016*[#   3]+0.016*[#   7]+
          +0.016*[#  11]+0.016*[#  15]+
    |psi|^2 = 0.989
==== e(   4) =   -12.39556 eV ==== 
     psi = 0.140*[#   4]+0.140*[#   8]+0.140*[#  12]+0.140*[#  16]+0.092*[#   1]+
          +0.092*[#   5]+0.092*[#   9]+0.092*[#  13]+0.016*[#   3]+0.016*[#   7]+
          +0.016*[#  11]+0.016*[#  15]+
    |psi|^2 = 0.991
==== e(   5) =   -10.16828 eV ==== 
     psi = 0.196*[#  11]+0.196*[#  15]+0.195*[#   3]+0.195*[#   7]+0.031*[#   4]+
          +0.031*[#   8]+0.031*[#  12]+0.031*[#  16]+0.020*[#   1]+0.020*[#   5]+
          +0.020*[#   9]+0.020*[#  13]+
    |psi|^2 = 0.986
==== e(   6) =   -10.12710 eV ==== 
     psi = 0.196*[#   3]+0.196*[#   7]+0.196*[#  11]+0.196*[#  15]+0.031*[#   4]+
          +0.031*[#   8]+0.031*[#  12]+0.031*[#  16]+0.020*[#   1]+0.020*[#   5]+
          +0.020*[#   9]+0.020*[#  13]+
    |psi|^2 = 0.988
==== e(   7) =    -2.11239 eV ==== 
     psi = 0.249*[#   2]+0.249*[#   6]+0.249*[#  10]+0.249*[#  14]+
    |psi|^2 = 0.996
==== e(   8) =    -1.56929 eV ==== 
     psi = 0.249*[#   2]+0.249*[#   6]+0.249*[#  10]+0.249*[#  14]+
    |psi|^2 = 0.996
==== e(   9) =     0.55160 eV ==== 
     psi = 0.246*[#   2]+0.246*[#   6]+0.246*[#  10]+0.246*[#  14]+
    |psi|^2 = 0.984
==== e(  10) =     1.05078 eV ==== 
     psi = 0.247*[#   2]+0.247*[#   6]+0.247*[#  10]+0.247*[#  14]+
    |psi|^2 = 0.986
==== e(  11) =     9.75082 eV ==== 
     psi = 0.001*[#   2]+0.001*[#   6]+0.001*[#  10]+0.001*[#  14]+
    |psi|^2 = 0.009
==== e(  12) =    10.74337 eV ==== 
     psi = 0.012*[#   1]+0.012*[#   5]+0.012*[#   9]+0.012*[#  13]+0.004*[#   3]+
          +0.004*[#   7]+0.004*[#  11]+0.004*[#  15]+0.001*[#   4]+0.001*[#   8]+
          +0.001*[#  12]+0.001*[#  16]+
    |psi|^2 = 0.069

 k =   0.3333333333  0.5773502692  0.0000000000
==== e(   1) =   -13.09729 eV ==== 
     psi = 0.120*[#   1]+0.120*[#   5]+0.120*[#   9]+0.120*[#  13]+0.064*[#   8]+
          +0.064*[#  11]+0.064*[#  16]+0.064*[#   3]+0.064*[#   4]+0.064*[#   7]+
          +0.064*[#  12]+0.064*[#  15]+
    |psi|^2 = 0.992
==== e(   2) =   -13.09673 eV ==== 
     psi = 0.120*[#   1]+0.120*[#   5]+0.120*[#   9]+0.120*[#  13]+0.064*[#   3]+
          +0.064*[#   4]+0.064*[#   7]+0.064*[#   8]+0.064*[#  11]+0.064*[#  12]+
          +0.064*[#  15]+0.064*[#  16]+
    |psi|^2 = 0.992
==== e(   3) =   -13.03442 eV ==== 
     psi = 0.121*[#   1]+0.120*[#   5]+0.120*[#   9]+0.120*[#  13]+0.064*[#   3]+
          +0.064*[#   4]+0.064*[#   7]+0.064*[#   8]+0.064*[#  11]+0.064*[#  12]+
          +0.064*[#  15]+0.064*[#  16]+
    |psi|^2 = 0.994
==== e(   4) =   -13.03386 eV ==== 
     psi = 0.120*[#   1]+0.121*[#   5]+0.120*[#   9]+0.120*[#  13]+0.064*[#   3]+
          +0.064*[#   4]+0.064*[#   7]+0.064*[#   8]+0.064*[#  11]+0.064*[#  12]+
          +0.064*[#  15]+0.064*[#  16]+
    |psi|^2 = 0.994
==== e(   5) =   -11.06121 eV ==== 
     psi = 0.122*[#   3]+0.122*[#  11]+0.122*[#  15]+0.122*[#   4]+0.122*[#  12]+
          +0.122*[#   7]+0.122*[#   8]+0.122*[#  16]+
    |psi|^2 = 0.979
==== e(   6) =   -11.01662 eV ==== 
     psi = 0.123*[#   3]+0.123*[#   4]+0.123*[#   7]+0.123*[#   8]+0.123*[#  11]+
          +0.123*[#  12]+0.123*[#  15]+0.123*[#  16]+
    |psi|^2 = 0.983
==== e(   7) =    -0.74377 eV ==== 
     psi = 0.248*[#   2]+0.248*[#  10]+0.248*[#   6]+0.248*[#  14]+
    |psi|^2 = 0.994
==== e(   8) =    -0.74306 eV ==== 
     psi = 0.248*[#   6]+0.248*[#  14]+0.248*[#   2]+0.248*[#  10]+
    |psi|^2 = 0.994
==== e(   9) =    -0.23962 eV ==== 
     psi = 0.248*[#   2]+0.249*[#  10]+0.248*[#   6]+0.248*[#  14]+
    |psi|^2 = 0.994
==== e(  10) =    -0.23888 eV ==== 
     psi = 0.248*[#   6]+0.249*[#  14]+0.248*[#   2]+0.248*[#  10]+
    |psi|^2 = 0.994
==== e(  11) =     9.30991 eV ==== 
     psi = 
    |psi|^2 = 0.001
==== e(  12) =    10.98986 eV ==== 
     psi = 
    |psi|^2 = 0.002

 k =  -0.0833333333  0.0481125224  0.0000000000
==== e(   1) =   -19.85302 eV ==== 
     psi = 0.231*[#   1]+0.231*[#   5]+0.231*[#   9]+0.231*[#  13]+0.010*[#   3]+
          +0.010*[#   7]+0.010*[#  11]+0.010*[#  15]+0.003*[#   4]+0.003*[#   8]+
          +0.003*[#  12]+0.003*[#  16]+
    |psi|^2 = 0.979
==== e(   2) =   -19.75051 eV ==== 
     psi = 0.233*[#   1]+0.233*[#   5]+0.233*[#   9]+0.233*[#  13]+0.010*[#   3]+
          +0.010*[#   7]+0.010*[#  11]+0.010*[#  15]+0.003*[#   4]+0.003*[#   8]+
          +0.003*[#  12]+0.003*[#  16]+
    |psi|^2 = 0.985
==== e(   3) =    -8.26672 eV ==== 
     psi = 0.238*[#   2]+0.238*[#   6]+0.238*[#  10]+0.238*[#  14]+
    |psi|^2 = 0.952
==== e(   4) =    -7.50697 eV ==== 
     psi = 0.242*[#   2]+0.242*[#   6]+0.242*[#  10]+0.242*[#  14]+
    |psi|^2 = 0.968
==== e(   5) =    -4.21427 eV ==== 
     psi = 0.180*[#  11]+0.180*[#  15]+0.180*[#   3]+0.180*[#   7]+0.061*[#  12]+
          +0.061*[#  16]+0.061*[#   4]+0.061*[#   8]+0.009*[#   1]+0.009*[#   5]+
          +0.009*[#   9]+0.009*[#  13]+
    |psi|^2 = 0.997
==== e(   6) =    -4.19940 eV ==== 
     psi = 0.180*[#   3]+0.180*[#   7]+0.180*[#  11]+0.180*[#  15]+0.061*[#   4]+
          +0.061*[#   8]+0.061*[#  12]+0.061*[#  16]+0.009*[#   1]+0.009*[#   5]+
          +0.009*[#   9]+0.009*[#  13]+
    |psi|^2 = 0.997
==== e(   7) =    -3.90410 eV ==== 
     psi = 0.187*[#  12]+0.187*[#  16]+0.186*[#   4]+0.186*[#   8]+0.063*[#  11]+
          +0.063*[#  15]+0.063*[#   3]+0.063*[#   7]+
    |psi|^2 = 0.997
==== e(   8) =    -3.89211 eV ==== 
     psi = 0.187*[#   4]+0.187*[#   8]+0.186*[#  12]+0.186*[#  16]+0.063*[#   3]+
          +0.063*[#   7]+0.063*[#  11]+0.063*[#  15]+
    |psi|^2 = 0.997
==== e(   9) =     3.11252 eV ==== 
     psi = 0.003*[#   3]+0.003*[#   7]+0.003*[#  11]+0.003*[#  15]+0.001*[#   4]+
          +0.001*[#   8]+0.001*[#  12]+0.001*[#  16]+0.001*[#   1]+0.001*[#   5]+
          +0.001*[#   9]+0.001*[#  13]+
    |psi|^2 = 0.026
==== e(  10) =     3.51682 eV ==== 
     psi = 0.004*[#   2]+0.004*[#   6]+0.004*[#  10]+0.004*[#  14]+0.001*[#   3]+
          +0.001*[#   7]+0.001*[#  11]+0.001*[#  15]+
    |psi|^2 = 0.024
==== e(  11) =     4.24016 eV ==== 
     psi = 
    |psi|^2 = 0.005
==== e(  12) =     5.45126 eV ==== 
     psi = 0.001*[#   2]+0.001*[#   6]+0.001*[#  10]+0.001*[#  14]+
    |psi|^2 = 0.008

 k =  -0.1666666667  0.0962250449  0.0000000000
==== e(   1) =   -19.36263 eV ==== 
     psi = 0.202*[#   1]+0.202*[#   5]+0.202*[#   9]+0.202*[#  13]+0.032*[#   3]+
          +0.032*[#   7]+0.032*[#  11]+0.032*[#  15]+0.011*[#   4]+0.011*[#   8]+
          +0.011*[#  12]+0.011*[#  16]+
    |psi|^2 = 0.978
==== e(   2) =   -19.26328 eV ==== 
     psi = 0.205*[#   1]+0.205*[#   5]+0.205*[#   9]+0.205*[#  13]+0.031*[#   3]+
          +0.031*[#   7]+0.031*[#  11]+0.031*[#  15]+0.010*[#   4]+0.010*[#   8]+
          +0.010*[#  12]+0.010*[#  16]+
    |psi|^2 = 0.984
==== e(   3) =    -7.67911 eV ==== 
     psi = 0.241*[#   2]+0.241*[#   6]+0.241*[#  10]+0.241*[#  14]+
    |psi|^2 = 0.964
==== e(   4) =    -6.93403 eV ==== 
     psi = 0.244*[#   2]+0.244*[#   6]+0.244*[#  10]+0.244*[#  14]+
    |psi|^2 = 0.977
==== e(   5) =    -5.84609 eV ==== 
     psi = 0.165*[#  11]+0.165*[#  15]+0.165*[#   3]+0.165*[#   7]+0.055*[#   4]+
          +0.055*[#   8]+0.055*[#  12]+0.055*[#  16]+0.028*[#   1]+0.028*[#   5]+
          +0.028*[#   9]+0.028*[#  13]+
    |psi|^2 = 0.994
==== e(   6) =    -5.82213 eV ==== 
     psi = 0.166*[#   3]+0.166*[#   7]+0.166*[#  11]+0.166*[#  15]+0.055*[#   4]+
          +0.055*[#   8]+0.055*[#  12]+0.055*[#  16]+0.028*[#   1]+0.028*[#   5]+
          +0.028*[#   9]+0.028*[#  13]+
    |psi|^2 = 0.996
==== e(   7) =    -4.69303 eV ==== 
     psi = 0.187*[#  12]+0.187*[#  16]+0.187*[#   4]+0.187*[#   8]+0.062*[#  11]+
          +0.062*[#  15]+0.062*[#   3]+0.062*[#   7]+
    |psi|^2 = 0.997
==== e(   8) =    -4.67929 eV ==== 
     psi = 0.187*[#   4]+0.187*[#   8]+0.187*[#  12]+0.187*[#  16]+0.062*[#   3]+
          +0.062*[#   7]+0.062*[#  11]+0.062*[#  15]+
    |psi|^2 = 0.997
==== e(   9) =     3.77368 eV ==== 
     psi = 0.007*[#   3]+0.007*[#   7]+0.007*[#  11]+0.007*[#  15]+0.002*[#   4]+
          +0.002*[#   8]+0.002*[#  12]+0.002*[#  16]+
    |psi|^2 = 0.042
==== e(  10) =     4.18541 eV ==== 
     psi = 0.003*[#   2]+0.003*[#   6]+0.003*[#  10]+0.003*[#  14]+0.002*[#   3]+
          +0.002*[#   7]+0.002*[#  11]+0.002*[#  15]+
    |psi|^2 = 0.025
==== e(  11) =     4.91625 eV ==== 
     psi = 0.001*[#   3]+0.001*[#   7]+0.001*[#  11]+0.001*[#  15]+
    |psi|^2 = 0.007
==== e(  12) =     6.12180 eV ==== 
     psi = 0.001*[#   2]+0.001*[#   6]+
    |psi|^2 = 0.007

 k =  -0.2500000000  0.1443375673  0.0000000000
==== e(   1) =   -18.55183 eV ==== 
     psi = 0.174*[#   1]+0.174*[#   5]+0.174*[#   9]+0.174*[#  13]+0.053*[#   3]+
          +0.053*[#   7]+0.053*[#  11]+0.053*[#  15]+0.018*[#   4]+0.018*[#   8]+
          +0.018*[#  12]+0.018*[#  16]+
    |psi|^2 = 0.977
==== e(   2) =   -18.45757 eV ==== 
     psi = 0.177*[#   1]+0.177*[#   5]+0.177*[#   9]+0.177*[#  13]+0.052*[#   3]+
          +0.052*[#   7]+0.052*[#  11]+0.052*[#  15]+0.017*[#   4]+0.017*[#   8]+
          +0.017*[#  12]+0.017*[#  16]+
    |psi|^2 = 0.983
==== e(   3) =    -7.93862 eV ==== 
     psi = 0.149*[#  11]+0.149*[#  15]+0.149*[#   3]+0.149*[#   7]+0.050*[#   4]+
          +0.050*[#   8]+0.050*[#  12]+0.050*[#  16]+0.049*[#   1]+0.049*[#   5]+
          +0.049*[#   9]+0.049*[#  13]+
    |psi|^2 = 0.991
==== e(   4) =    -7.90379 eV ==== 
     psi = 0.150*[#   3]+0.150*[#   7]+0.150*[#  11]+0.150*[#  15]+0.050*[#   4]+
          +0.050*[#   8]+0.050*[#  12]+0.050*[#  16]+0.048*[#   1]+0.048*[#   5]+
          +0.048*[#   9]+0.048*[#  13]+
    |psi|^2 = 0.994
==== e(   5) =    -6.71961 eV ==== 
     psi = 0.244*[#   2]+0.244*[#   6]+0.244*[#  10]+0.244*[#  14]+
    |psi|^2 = 0.978
==== e(   6) =    -6.00113 eV ==== 
     psi = 0.247*[#   2]+0.247*[#   6]+0.247*[#  10]+0.247*[#  14]+
    |psi|^2 = 0.987
==== e(   7) =    -5.56914 eV ==== 
     psi = 0.187*[#  12]+0.187*[#  16]+0.187*[#   4]+0.187*[#   8]+0.062*[#  11]+
          +0.062*[#  15]+0.062*[#   3]+0.062*[#   7]+
    |psi|^2 = 0.997
==== e(   8) =    -5.55371 eV ==== 
     psi = 0.187*[#   4]+0.187*[#   8]+0.187*[#  12]+0.187*[#  16]+0.062*[#   3]+
          +0.062*[#   7]+0.062*[#  11]+0.062*[#  15]+
    |psi|^2 = 0.997
==== e(   9) =     4.87143 eV ==== 
     psi = 0.006*[#   3]+0.006*[#   7]+0.006*[#  11]+0.006*[#  15]+0.002*[#   4]+
          +0.002*[#   8]+0.002*[#  12]+0.002*[#  16]+
    |psi|^2 = 0.036
==== e(  10) =     5.28863 eV ==== 
     psi = 0.003*[#   2]+0.003*[#   6]+0.003*[#  10]+0.003*[#  14]+0.002*[#   3]+
          +0.002*[#   7]+0.002*[#  11]+0.002*[#  15]+
    |psi|^2 = 0.023
==== e(  11) =     6.03849 eV ==== 
     psi = 
    |psi|^2 = 0.009
==== e(  12) =     6.50693 eV ==== 
     psi = 0.223*[#   2]+0.223*[#   6]+0.222*[#  10]+0.222*[#  14]+
    |psi|^2 = 0.891

 k =  -0.3333333333  0.1924500897  0.0000000000
==== e(   1) =   -17.43291 eV ==== 
     psi = 0.152*[#   1]+0.152*[#   5]+0.152*[#   9]+0.152*[#  13]+0.069*[#   3]+
          +0.069*[#   7]+0.069*[#  11]+0.069*[#  15]+0.023*[#   4]+0.023*[#   8]+
          +0.023*[#  12]+0.023*[#  16]+
    |psi|^2 = 0.978
==== e(   2) =   -17.34544 eV ==== 
     psi = 0.155*[#   1]+0.155*[#   5]+0.155*[#   9]+0.155*[#  13]+0.068*[#   3]+
          +0.068*[#   7]+0.068*[#  11]+0.068*[#  15]+0.023*[#   4]+0.023*[#   8]+
          +0.023*[#  12]+0.023*[#  16]+
    |psi|^2 = 0.984
==== e(   3) =   -10.13731 eV ==== 
     psi = 0.136*[#   3]+0.136*[#   7]+0.136*[#  11]+0.136*[#  15]+0.066*[#   1]+
          +0.066*[#   5]+0.066*[#   9]+0.066*[#  13]+0.045*[#   4]+0.045*[#   8]+
          +0.045*[#  12]+0.045*[#  16]+
    |psi|^2 = 0.989
==== e(   4) =   -10.09141 eV ==== 
     psi = 0.137*[#   3]+0.137*[#   7]+0.137*[#  11]+0.137*[#  15]+0.066*[#   1]+
          +0.066*[#   5]+0.066*[#   9]+0.066*[#  13]+0.046*[#   4]+0.046*[#   8]+
          +0.046*[#  12]+0.046*[#  16]+
    |psi|^2 = 0.991
==== e(   5) =    -6.29949 eV ==== 
     psi = 0.187*[#  12]+0.187*[#  16]+0.187*[#   4]+0.187*[#   8]+0.062*[#  11]+
          +0.062*[#  15]+0.062*[#   3]+0.062*[#   7]+
    |psi|^2 = 0.996
==== e(   6) =    -6.28296 eV ==== 
     psi = 0.187*[#   4]+0.187*[#   8]+0.187*[#  12]+0.187*[#  16]+0.062*[#   3]+
          +0.062*[#   7]+0.062*[#  11]+0.062*[#  15]+
    |psi|^2 = 0.997
==== e(   7) =    -5.43649 eV ==== 
     psi = 0.248*[#   2]+0.248*[#   6]+0.248*[#  10]+0.248*[#  14]+
    |psi|^2 = 0.991
==== e(   8) =    -4.76072 eV ==== 
     psi = 0.249*[#   2]+0.249*[#   6]+0.249*[#  10]+0.249*[#  14]+
    |psi|^2 = 0.994
==== e(   9) =     4.16271 eV ==== 
     psi = 0.233*[#   2]+0.233*[#   6]+0.233*[#  10]+0.233*[#  14]+
    |psi|^2 = 0.933
==== e(  10) =     4.64419 eV ==== 
     psi = 0.236*[#   2]+0.236*[#   6]+0.236*[#  10]+0.236*[#  14]+
    |psi|^2 = 0.943
==== e(  11) =     6.38360 eV ==== 
     psi = 0.004*[#   1]+0.004*[#   5]+0.004*[#   9]+0.004*[#  13]+
    |psi|^2 = 0.023
==== e(  12) =     6.86090 eV ==== 
     psi = 0.004*[#   1]+0.004*[#   5]+0.004*[#   9]+0.004*[#  13]+0.003*[#   2]+
          +0.003*[#   6]+0.003*[#  10]+0.003*[#  14]+
    |psi|^2 = 0.028

 k =  -0.4166666667  0.2405626122  0.0000000000
==== e(   1) =   -16.03755 eV ==== 
     psi = 0.139*[#   1]+0.139*[#   5]+0.139*[#   9]+0.139*[#  13]+0.080*[#   3]+
          +0.080*[#   7]+0.080*[#  11]+0.080*[#  15]+0.027*[#   4]+0.027*[#   8]+
          +0.027*[#  12]+0.027*[#  16]+
    |psi|^2 = 0.982
==== e(   2) =   -15.95782 eV ==== 
     psi = 0.141*[#   1]+0.141*[#   5]+0.141*[#   9]+0.141*[#  13]+0.079*[#   3]+
          +0.079*[#   7]+0.079*[#  11]+0.079*[#  15]+0.026*[#   4]+0.026*[#   8]+
          +0.026*[#  12]+0.026*[#  16]+
    |psi|^2 = 0.986
==== e(   3) =   -12.23430 eV ==== 
     psi = 0.127*[#   3]+0.127*[#   7]+0.127*[#  11]+0.127*[#  15]+0.077*[#   1]+
          +0.077*[#   5]+0.077*[#   9]+0.077*[#  13]+0.042*[#   4]+0.042*[#   8]+
          +0.042*[#  12]+0.042*[#  16]+
    |psi|^2 = 0.985
==== e(   4) =   -12.17782 eV ==== 
     psi = 0.127*[#   3]+0.127*[#   7]+0.127*[#  11]+0.127*[#  15]+0.078*[#   1]+
          +0.078*[#   5]+0.078*[#   9]+0.078*[#  13]+0.042*[#   4]+0.042*[#   8]+
          +0.042*[#  12]+0.042*[#  16]+
    |psi|^2 = 0.988
==== e(   5) =    -6.77049 eV ==== 
     psi = 0.187*[#  12]+0.187*[#  16]+0.187*[#   4]+0.187*[#   8]+0.062*[#  11]+
          +0.062*[#  15]+0.062*[#   3]+0.062*[#   7]+
    |psi|^2 = 0.996
==== e(   6) =    -6.75345 eV ==== 
     psi = 0.187*[#   4]+0.187*[#   8]+0.187*[#  12]+0.187*[#  16]+0.062*[#   3]+
          +0.062*[#   7]+0.062*[#  11]+0.062*[#  15]+
    |psi|^2 = 0.996
==== e(   7) =    -3.98793 eV ==== 
     psi = 0.249*[#   2]+0.249*[#   6]+0.249*[#  10]+0.249*[#  14]+
    |psi|^2 = 0.996
==== e(   8) =    -3.37994 eV ==== 
     psi = 0.249*[#   2]+0.249*[#   6]+0.249*[#  10]+0.249*[#  14]+
    |psi|^2 = 0.997
==== e(   9) =     1.97583 eV ==== 
     psi = 0.235*[#   2]+0.235*[#   6]+0.235*[#  10]+0.235*[#  14]+
    |psi|^2 = 0.940
==== e(  10) =     2.58328 eV ==== 
     psi = 0.238*[#   2]+0.238*[#   6]+0.238*[#  10]+0.238*[#  14]+
    |psi|^2 = 0.952
==== e(  11) =     6.88930 eV ==== 
     psi = 0.159*[#   1]+0.159*[#   5]+0.159*[#   9]+0.159*[#  13]+0.042*[#   3]+
          +0.042*[#   7]+0.042*[#  11]+0.042*[#  15]+0.014*[#   4]+0.014*[#   8]+
          +0.014*[#  12]+0.014*[#  16]+
    |psi|^2 = 0.860
==== e(  12) =     7.03135 eV ==== 
     psi = 0.160*[#   1]+0.160*[#   5]+0.160*[#   9]+0.160*[#  13]+0.046*[#   3]+
          +0.046*[#   7]+0.046*[#  11]+0.046*[#  15]+0.015*[#   4]+0.015*[#   8]+
          +0.015*[#  12]+0.015*[#  16]+
    |psi|^2 = 0.885

 k =   0.5000000000 -0.2886751346  0.0000000000
==== e(   1) =   -14.77701 eV ==== 
     psi = 0.160*[#   1]+0.160*[#   5]+0.160*[#   9]+0.160*[#  13]+0.066*[#   3]+
          +0.066*[#   7]+0.066*[#  11]+0.066*[#  15]+0.022*[#   4]+0.022*[#   8]+
          +0.022*[#  12]+0.022*[#  16]+
    |psi|^2 = 0.992
==== e(   2) =   -14.70171 eV ==== 
     psi = 0.161*[#   1]+0.161*[#   5]+0.161*[#   9]+0.161*[#  13]+0.065*[#   3]+
          +0.065*[#   7]+0.065*[#  11]+0.065*[#  15]+0.022*[#   4]+0.022*[#   8]+
          +0.022*[#  12]+0.022*[#  16]+
    |psi|^2 = 0.994
==== e(   3) =   -13.73640 eV ==== 
     psi = 0.141*[#   3]+0.141*[#   7]+0.141*[#  11]+0.141*[#  15]+0.056*[#   1]+
          +0.056*[#   5]+0.056*[#   9]+0.056*[#  13]+0.047*[#   4]+0.047*[#   8]+
          +0.047*[#  12]+0.047*[#  16]+
    |psi|^2 = 0.976
==== e(   4) =   -13.67478 eV ==== 
     psi = 0.141*[#   3]+0.141*[#   7]+0.141*[#  11]+0.141*[#  15]+0.057*[#   1]+
          +0.057*[#   5]+0.057*[#   9]+0.057*[#  13]+0.047*[#   4]+0.047*[#   8]+
          +0.047*[#  12]+0.047*[#  16]+
    |psi|^2 = 0.981
==== e(   5) =    -6.93226 eV ==== 
     psi = 0.187*[#  12]+0.187*[#  16]+0.186*[#   4]+0.186*[#   8]+0.062*[#  11]+
          +0.062*[#  15]+0.062*[#   3]+0.062*[#   7]+
    |psi|^2 = 0.996
==== e(   6) =    -6.91502 eV ==== 
     psi = 0.187*[#   4]+0.187*[#   8]+0.187*[#  12]+0.187*[#  16]+0.062*[#   3]+
          +0.062*[#   7]+0.062*[#  11]+0.062*[#  15]+
    |psi|^2 = 0.996
==== e(   7) =    -3.11585 eV ==== 
     psi = 0.249*[#   2]+0.249*[#   6]+0.249*[#  10]+0.249*[#  14]+
    |psi|^2 = 0.998
==== e(   8) =    -2.57351 eV ==== 
     psi = 0.249*[#   2]+0.249*[#   6]+0.249*[#  10]+0.249*[#  14]+
    |psi|^2 = 0.998
==== e(   9) =     0.84244 eV ==== 
     psi = 0.236*[#   2]+0.236*[#   6]+0.236*[#  10]+0.236*[#  14]+
    |psi|^2 = 0.944
==== e(  10) =     1.53446 eV ==== 
     psi = 0.238*[#   2]+0.238*[#   6]+0.238*[#  10]+0.238*[#  14]+
    |psi|^2 = 0.953
==== e(  11) =     6.81264 eV ==== 
     psi = 0.167*[#   1]+0.167*[#   5]+0.167*[#   9]+0.167*[#  13]+0.040*[#   3]+
          +0.040*[#   7]+0.040*[#  11]+0.040*[#  15]+0.013*[#   4]+0.013*[#   8]+
          +0.013*[#  12]+0.013*[#  16]+
    |psi|^2 = 0.880
==== e(  12) =     6.95145 eV ==== 
     psi = 0.167*[#   1]+0.167*[#   5]+0.167*[#   9]+0.167*[#  13]+0.041*[#   3]+
          +0.041*[#   7]+0.041*[#  11]+0.041*[#  15]+0.014*[#   4]+0.014*[#   8]+
          +0.014*[#  12]+0.014*[#  16]+
    |psi|^2 = 0.888

 k =   0.1666666667 -0.0000000000  0.0000000000
==== e(   1) =   -19.52580 eV ==== 
     psi = 0.210*[#   1]+0.210*[#   5]+0.210*[#   9]+0.210*[#  13]+0.034*[#   3]+
          +0.034*[#   7]+0.034*[#  11]+0.034*[#  15]+
    |psi|^2 = 0.978
==== e(   2) =   -19.42540 eV ==== 
     psi = 0.213*[#   1]+0.213*[#   5]+0.213*[#   9]+0.213*[#  13]+0.033*[#   3]+
          +0.033*[#   7]+0.033*[#  11]+0.033*[#  15]+
    |psi|^2 = 0.985
==== e(   3) =    -7.87403 eV ==== 
     psi = 0.240*[#   2]+0.240*[#   6]+0.240*[#  10]+0.240*[#  14]+
    |psi|^2 = 0.960
==== e(   4) =    -7.12398 eV ==== 
     psi = 0.243*[#   2]+0.243*[#   6]+0.243*[#  10]+0.243*[#  14]+
    |psi|^2 = 0.974
==== e(   5) =    -5.24370 eV ==== 
     psi = 0.212*[#  11]+0.212*[#  15]+0.211*[#   3]+0.211*[#   7]+0.020*[#   1]+
          +0.020*[#   5]+0.021*[#   9]+0.021*[#  13]+0.017*[#   4]+0.017*[#   8]+
          +0.017*[#  12]+0.017*[#  16]+
    |psi|^2 = 0.998
==== e(   6) =    -5.22346 eV ==== 
     psi = 0.212*[#   3]+0.212*[#   7]+0.211*[#  11]+0.211*[#  15]+0.021*[#   1]+
          +0.021*[#   5]+0.020*[#   9]+0.020*[#  13]+0.017*[#   4]+0.017*[#   8]+
          +0.017*[#  12]+0.017*[#  16]+
    |psi|^2 = 0.998
==== e(   7) =    -4.57925 eV ==== 
     psi = 0.228*[#  12]+0.228*[#  16]+0.227*[#   4]+0.227*[#   8]+0.018*[#   3]+
          +0.018*[#   7]+0.018*[#  11]+0.018*[#  15]+0.003*[#   1]+0.003*[#   5]+
          +0.003*[#   9]+0.003*[#  13]+
    |psi|^2 = 0.994
==== e(   8) =    -4.56442 eV ==== 
     psi = 0.227*[#   4]+0.227*[#   8]+0.227*[#  12]+0.227*[#  16]+0.019*[#   3]+
          +0.019*[#   7]+0.019*[#  11]+0.019*[#  15]+0.003*[#   1]+0.003*[#   5]+
          +0.003*[#   9]+0.003*[#  13]+
    |psi|^2 = 0.996
==== e(   9) =     3.55366 eV ==== 
     psi = 0.009*[#   3]+0.009*[#   7]+0.009*[#  11]+0.009*[#  15]+
    |psi|^2 = 0.040
==== e(  10) =     3.96293 eV ==== 
     psi = 0.003*[#   2]+0.003*[#   6]+0.003*[#  10]+0.003*[#  14]+0.003*[#   3]+
          +0.003*[#   7]+0.003*[#  11]+0.003*[#  15]+
    |psi|^2 = 0.025
==== e(  11) =     4.69111 eV ==== 
     psi = 0.002*[#   3]+0.002*[#   7]+0.002*[#  11]+0.002*[#  15]+
    |psi|^2 = 0.007
==== e(  12) =     5.89896 eV ==== 
     psi = 0.001*[#   2]+0.001*[#   6]+0.001*[#  10]+0.001*[#  14]+
    |psi|^2 = 0.008

 k =  -0.1666666667  0.1924500897  0.0000000000
==== e(   1) =   -18.87522 eV ==== 
     psi = 0.183*[#   1]+0.183*[#   5]+0.183*[#   9]+0.183*[#  13]+0.035*[#   4]+
          +0.035*[#   8]+0.035*[#  12]+0.035*[#  16]+0.026*[#   3]+0.026*[#   7]+
          +0.026*[#  11]+0.026*[#  15]+
    |psi|^2 = 0.977
==== e(   2) =   -18.77895 eV ==== 
     psi = 0.186*[#   1]+0.186*[#   5]+0.186*[#   9]+0.186*[#  13]+0.034*[#   4]+
          +0.034*[#   8]+0.034*[#  12]+0.034*[#  16]+0.026*[#   3]+0.026*[#   7]+
          +0.026*[#  11]+0.026*[#  15]+
    |psi|^2 = 0.984
==== e(   3) =    -7.09951 eV ==== 
     psi = 0.243*[#   2]+0.243*[#   6]+0.243*[#  10]+0.243*[#  14]+
    |psi|^2 = 0.973
==== e(   4) =    -6.94860 eV ==== 
     psi = 0.130*[#  11]+0.130*[#  15]+0.130*[#   3]+0.130*[#   7]+0.080*[#   4]+
          +0.080*[#   8]+0.080*[#  12]+0.080*[#  16]+0.039*[#   1]+0.039*[#   5]+
          +0.039*[#   9]+0.039*[#  13]+
    |psi|^2 = 0.995
==== e(   5) =    -6.91963 eV ==== 
     psi = 0.131*[#   3]+0.131*[#   7]+0.130*[#  11]+0.130*[#  15]+0.080*[#   4]+
          +0.080*[#   8]+0.080*[#  12]+0.080*[#  16]+0.039*[#   1]+0.039*[#   5]+
          +0.039*[#   9]+0.039*[#  13]+
    |psi|^2 = 0.996
==== e(   6) =    -6.36976 eV ==== 
     psi = 0.246*[#   2]+0.246*[#   6]+0.246*[#  10]+0.246*[#  14]+
    |psi|^2 = 0.984
==== e(   7) =    -5.57262 eV ==== 
     psi = 0.148*[#  12]+0.148*[#  16]+0.148*[#   4]+0.148*[#   8]+0.094*[#  11]+
          +0.094*[#  15]+0.094*[#   3]+0.094*[#   7]+0.006*[#   1]+0.006*[#   5]+
          +0.006*[#   9]+0.006*[#  13]+
    |psi|^2 = 0.993
==== e(   8) =    -5.55439 eV ==== 
     psi = 0.149*[#   4]+0.149*[#   8]+0.149*[#  12]+0.149*[#  16]+0.094*[#   3]+
          +0.094*[#   7]+0.094*[#  11]+0.094*[#  15]+0.006*[#   1]+0.006*[#   5]+
          +0.006*[#   9]+0.006*[#  13]+
    |psi|^2 = 0.995
==== e(   9) =     4.43458 eV ==== 
     psi = 0.006*[#   4]+0.006*[#   8]+0.006*[#  12]+0.006*[#  16]+0.004*[#   3]+
          +0.004*[#   7]+0.004*[#  11]+0.004*[#  15]+
    |psi|^2 = 0.043
==== e(  10) =     4.85222 eV ==== 
     psi = 0.002*[#   2]+0.002*[#   6]+0.002*[#  10]+0.002*[#  14]+0.002*[#   4]+
          +0.002*[#   8]+0.002*[#  12]+0.002*[#  16]+0.001*[#   3]+0.001*[#   7]+
          +0.001*[#  11]+0.001*[#  15]+
    |psi|^2 = 0.022
==== e(  11) =     5.59251 eV ==== 
     psi = 0.001*[#   4]+0.001*[#   8]+0.001*[#  12]+0.001*[#  16]+
    |psi|^2 = 0.007
==== e(  12) =     6.79099 eV ==== 
     psi = 0.001*[#   2]+0.001*[#   6]+0.001*[#  10]+0.001*[#  14]+
    |psi|^2 = 0.007

 k =   0.2500000000  0.0481125224  0.0000000000
==== e(   1) =   -18.87521 eV ==== 
     psi = 0.183*[#   1]+0.183*[#   5]+0.183*[#   9]+0.183*[#  13]+0.059*[#   3]+
          +0.059*[#   7]+0.059*[#  11]+0.059*[#  15]+0.002*[#   4]+0.002*[#   8]+
          +0.002*[#  12]+0.002*[#  16]+
    |psi|^2 = 0.977
==== e(   2) =   -18.77894 eV ==== 
     psi = 0.186*[#   1]+0.186*[#   5]+0.186*[#   9]+0.186*[#  13]+0.058*[#   3]+
          +0.058*[#   7]+0.058*[#  11]+0.058*[#  15]+0.002*[#   4]+0.002*[#   8]+
          +0.002*[#  12]+0.002*[#  16]+
    |psi|^2 = 0.984
==== e(   3) =    -7.09954 eV ==== 
     psi = 0.243*[#   2]+0.243*[#   6]+0.243*[#  10]+0.243*[#  14]+
    |psi|^2 = 0.973
==== e(   4) =    -6.94815 eV ==== 
     psi = 0.170*[#  11]+0.170*[#  15]+0.170*[#   3]+0.170*[#   7]+0.039*[#   4]+
          +0.039*[#   8]+0.039*[#  12]+0.039*[#  16]+0.039*[#   1]+0.039*[#   5]+
          +0.039*[#   9]+0.039*[#  13]+
    |psi|^2 = 0.995
==== e(   5) =    -6.91919 eV ==== 
     psi = 0.171*[#   3]+0.171*[#   7]+0.171*[#  11]+0.171*[#  15]+0.040*[#   4]+
          +0.040*[#   8]+0.040*[#  12]+0.040*[#  16]+0.039*[#   1]+0.039*[#   5]+
          +0.039*[#   9]+0.039*[#  13]+
    |psi|^2 = 0.996
==== e(   6) =    -6.36979 eV ==== 
     psi = 0.246*[#   2]+0.246*[#   6]+0.246*[#  10]+0.246*[#  14]+
    |psi|^2 = 0.984
==== e(   7) =    -5.57310 eV ==== 
     psi = 0.199*[#  12]+0.199*[#  16]+0.199*[#   4]+0.199*[#   8]+0.043*[#   3]+
          +0.043*[#   7]+0.043*[#  11]+0.043*[#  15]+0.006*[#   1]+0.006*[#   5]+
          +0.006*[#   9]+0.006*[#  13]+
    |psi|^2 = 0.993
==== e(   8) =    -5.55487 eV ==== 
     psi = 0.199*[#   4]+0.199*[#   8]+0.198*[#  12]+0.198*[#  16]+0.045*[#   3]+
          +0.045*[#   7]+0.045*[#  11]+0.045*[#  15]+0.006*[#   1]+0.006*[#   5]+
          +0.006*[#   9]+0.006*[#  13]+
    |psi|^2 = 0.995
==== e(   9) =     4.43457 eV ==== 
     psi = 0.010*[#   3]+0.010*[#   7]+0.010*[#  11]+0.010*[#  15]+
    |psi|^2 = 0.043
==== e(  10) =     4.85222 eV ==== 
     psi = 0.003*[#   3]+0.003*[#   7]+0.003*[#  11]+0.003*[#  15]+0.002*[#   2]+
          +0.002*[#   6]+0.002*[#  10]+0.002*[#  14]+
    |psi|^2 = 0.022
==== e(  11) =     5.59251 eV ==== 
     psi = 0.002*[#   3]+0.002*[#   7]+0.002*[#  11]+0.002*[#  15]+
    |psi|^2 = 0.007
==== e(  12) =     6.79099 eV ==== 
     psi = 0.001*[#   2]+0.001*[#   6]+0.001*[#  10]+0.001*[#  14]+
    |psi|^2 = 0.007

 k =  -0.2500000000  0.2405626122  0.0000000000
==== e(   1) =   -17.91019 eV ==== 
     psi = 0.160*[#   1]+0.160*[#   5]+0.160*[#   9]+0.160*[#  13]+0.044*[#   3]+
          +0.044*[#   7]+0.044*[#  11]+0.044*[#  15]+0.040*[#   4]+0.040*[#   8]+
          +0.040*[#  12]+0.040*[#  16]+
    |psi|^2 = 0.977
==== e(   2) =   -17.81988 eV ==== 
     psi = 0.162*[#   1]+0.162*[#   5]+0.162*[#   9]+0.162*[#  13]+0.043*[#   3]+
          +0.043*[#   7]+0.043*[#  11]+0.043*[#  15]+0.040*[#   4]+0.040*[#   8]+
          +0.040*[#  12]+0.040*[#  16]+
    |psi|^2 = 0.983
==== e(   3) =    -9.01659 eV ==== 
     psi = 0.143*[#  11]+0.143*[#  15]+0.143*[#   3]+0.143*[#   7]+0.057*[#   1]+
          +0.057*[#   5]+0.058*[#   9]+0.058*[#  13]+0.047*[#   4]+0.047*[#   8]+
          +0.047*[#  12]+0.047*[#  16]+
    |psi|^2 = 0.991
==== e(   4) =    -8.97676 eV ==== 
     psi = 0.144*[#   3]+0.144*[#   7]+0.143*[#  11]+0.143*[#  15]+0.057*[#   1]+
          +0.057*[#   5]+0.057*[#   9]+0.057*[#  13]+0.048*[#   4]+0.048*[#   8]+
          +0.048*[#  12]+0.048*[#  16]+
    |psi|^2 = 0.993
==== e(   5) =    -6.45561 eV ==== 
     psi = 0.174*[#  12]+0.174*[#  16]+0.174*[#   4]+0.174*[#   8]+0.067*[#   3]+
          +0.067*[#   7]+0.067*[#  11]+0.067*[#  15]+0.007*[#   1]+0.007*[#   5]+
          +0.007*[#   9]+0.007*[#  13]+
    |psi|^2 = 0.994
==== e(   6) =    -6.43525 eV ==== 
     psi = 0.175*[#   4]+0.175*[#   8]+0.175*[#  12]+0.175*[#  16]+0.067*[#   3]+
          +0.067*[#   7]+0.067*[#  11]+0.067*[#  15]+0.007*[#   1]+0.007*[#   5]+
          +0.007*[#   9]+0.007*[#  13]+
    |psi|^2 = 0.995
==== e(   7) =    -5.97183 eV ==== 
     psi = 0.246*[#   2]+0.246*[#   6]+0.246*[#  10]+0.246*[#  14]+
    |psi|^2 = 0.987
==== e(   8) =    -5.27629 eV ==== 
     psi = 0.248*[#   2]+0.248*[#   6]+0.248*[#  10]+0.248*[#  14]+
    |psi|^2 = 0.992
==== e(   9) =     5.21330 eV ==== 
     psi = 0.236*[#   2]+0.236*[#   6]+0.236*[#  10]+0.236*[#  14]+
    |psi|^2 = 0.942
==== e(  10) =     5.59964 eV ==== 
     psi = 0.227*[#   2]+0.227*[#   6]+0.227*[#  10]+0.227*[#  14]+
    |psi|^2 = 0.909
==== e(  11) =     5.74924 eV ==== 
     psi = 0.003*[#   4]+0.003*[#   8]+0.003*[#  12]+0.003*[#  16]+0.003*[#   3]+
          +0.003*[#   7]+0.003*[#  11]+0.003*[#  15]+
    |psi|^2 = 0.030
==== e(  12) =     6.21486 eV ==== 
     psi = 0.014*[#   2]+0.014*[#   6]+0.014*[#  10]+0.014*[#  14]+0.001*[#   3]+
          +0.001*[#   4]+0.001*[#   7]+0.001*[#   8]+0.001*[#  11]+0.001*[#  12]+
          +0.001*[#  15]+0.001*[#  16]+
    |psi|^2 = 0.065

 k =   0.3333333333  0.0962250449  0.0000000000
==== e(   1) =   -17.91018 eV ==== 
     psi = 0.160*[#   1]+0.160*[#   5]+0.160*[#   9]+0.160*[#  13]+0.078*[#   3]+
          +0.078*[#   7]+0.078*[#  11]+0.078*[#  15]+0.007*[#   4]+0.007*[#   8]+
          +0.007*[#  12]+0.007*[#  16]+
    |psi|^2 = 0.977
==== e(   2) =   -17.81987 eV ==== 
     psi = 0.162*[#   1]+0.162*[#   5]+0.162*[#   9]+0.162*[#  13]+0.077*[#   3]+
          +0.077*[#   7]+0.077*[#  11]+0.077*[#  15]+0.007*[#   4]+0.007*[#   8]+
          +0.007*[#  12]+0.007*[#  16]+
    |psi|^2 = 0.983
==== e(   3) =    -9.01644 eV ==== 
     psi = 0.139*[#  11]+0.139*[#  15]+0.139*[#   3]+0.139*[#   7]+0.057*[#   1]+
          +0.057*[#   5]+0.058*[#   9]+0.058*[#  13]+0.052*[#   4]+0.052*[#   8]+
          +0.052*[#  12]+0.052*[#  16]+
    |psi|^2 = 0.991
==== e(   4) =    -8.97660 eV ==== 
     psi = 0.139*[#   3]+0.139*[#   7]+0.139*[#  11]+0.139*[#  15]+0.057*[#   1]+
          +0.057*[#   5]+0.057*[#   9]+0.057*[#  13]+0.052*[#   4]+0.052*[#   8]+
          +0.052*[#  12]+0.052*[#  16]+
    |psi|^2 = 0.993
==== e(   5) =    -6.45579 eV ==== 
     psi = 0.183*[#  12]+0.183*[#  16]+0.183*[#   4]+0.183*[#   8]+0.058*[#   3]+
          +0.058*[#   7]+0.059*[#  11]+0.059*[#  15]+0.007*[#   1]+0.007*[#   5]+
          +0.007*[#   9]+0.007*[#  13]+
    |psi|^2 = 0.994
==== e(   6) =    -6.43543 eV ==== 
     psi = 0.182*[#   4]+0.182*[#   8]+0.182*[#  12]+0.182*[#  16]+0.060*[#   3]+
          +0.060*[#   7]+0.060*[#  11]+0.060*[#  15]+0.007*[#   1]+0.007*[#   5]+
          +0.007*[#   9]+0.007*[#  13]+
    |psi|^2 = 0.995
==== e(   7) =    -5.97187 eV ==== 
     psi = 0.246*[#   2]+0.246*[#   6]+0.246*[#  10]+0.246*[#  14]+
    |psi|^2 = 0.987
==== e(   8) =    -5.27634 eV ==== 
     psi = 0.248*[#   2]+0.248*[#   6]+0.248*[#  10]+0.248*[#  14]+
    |psi|^2 = 0.992
==== e(   9) =     5.21349 eV ==== 
     psi = 0.236*[#   2]+0.236*[#   6]+0.236*[#  10]+0.236*[#  14]+
    |psi|^2 = 0.942
==== e(  10) =     5.59983 eV ==== 
     psi = 0.227*[#   2]+0.227*[#   6]+0.227*[#  10]+0.227*[#  14]+
    |psi|^2 = 0.909
==== e(  11) =     5.74923 eV ==== 
     psi = 0.006*[#   3]+0.006*[#   7]+0.006*[#  11]+0.006*[#  15]+
    |psi|^2 = 0.030
==== e(  12) =     6.21485 eV ==== 
     psi = 0.014*[#   2]+0.014*[#   6]+0.014*[#  10]+0.014*[#  14]+0.002*[#   3]+
          +0.002*[#   7]+0.002*[#  11]+0.002*[#  15]+
    |psi|^2 = 0.065

 k =  -0.3333333333  0.2886751346  0.0000000000
==== e(   1) =   -16.64987 eV ==== 
     psi = 0.143*[#   1]+0.143*[#   5]+0.143*[#   9]+0.143*[#  13]+0.059*[#   3]+
          +0.059*[#   7]+0.059*[#  11]+0.059*[#  15]+0.044*[#   4]+0.044*[#   8]+
          +0.044*[#  12]+0.044*[#  16]+
    |psi|^2 = 0.979
==== e(   2) =   -16.56693 eV ==== 
     psi = 0.145*[#   1]+0.145*[#   5]+0.145*[#   9]+0.145*[#  13]+0.058*[#   3]+
          +0.058*[#   7]+0.058*[#  11]+0.058*[#  15]+0.043*[#   4]+0.043*[#   8]+
          +0.043*[#  12]+0.043*[#  16]+
    |psi|^2 = 0.985
==== e(   3) =   -11.13573 eV ==== 
     psi = 0.140*[#   3]+0.140*[#   7]+0.140*[#  11]+0.140*[#  15]+0.073*[#   1]+
          +0.073*[#   5]+0.073*[#   9]+0.073*[#  13]+0.035*[#   4]+0.035*[#   8]+
          +0.035*[#  12]+0.035*[#  16]+
    |psi|^2 = 0.988
==== e(   4) =   -11.08495 eV ==== 
     psi = 0.140*[#   3]+0.140*[#   7]+0.140*[#  11]+0.140*[#  15]+0.073*[#   1]+
          +0.073*[#   5]+0.072*[#   9]+0.072*[#  13]+0.035*[#   4]+0.035*[#   8]+
          +0.035*[#  12]+0.035*[#  16]+
    |psi|^2 = 0.991
==== e(   5) =    -7.08799 eV ==== 
     psi = 0.181*[#  12]+0.181*[#  16]+0.180*[#   4]+0.180*[#   8]+0.060*[#   3]+
          +0.060*[#   7]+0.060*[#  11]+0.060*[#  15]+0.008*[#   1]+0.008*[#   5]+
          +0.008*[#   9]+0.008*[#  13]+
    |psi|^2 = 0.994
==== e(   6) =    -7.06654 eV ==== 
     psi = 0.181*[#   4]+0.181*[#   8]+0.181*[#  12]+0.181*[#  16]+0.060*[#   3]+
          +0.060*[#   7]+0.060*[#  11]+0.060*[#  15]+0.008*[#   1]+0.008*[#   5]+
          +0.007*[#   9]+0.007*[#  13]+
    |psi|^2 = 0.995
==== e(   7) =    -4.57285 eV ==== 
     psi = 0.249*[#   2]+0.249*[#   6]+0.249*[#  10]+0.249*[#  14]+
    |psi|^2 = 0.995
==== e(   8) =    -3.93077 eV ==== 
     psi = 0.249*[#   2]+0.249*[#   6]+0.249*[#  10]+0.249*[#  14]+
    |psi|^2 = 0.996
==== e(   9) =     2.95877 eV ==== 
     psi = 0.236*[#   2]+0.236*[#   6]+0.236*[#  10]+0.236*[#  14]+
    |psi|^2 = 0.945
==== e(  10) =     3.48072 eV ==== 
     psi = 0.239*[#   2]+0.239*[#   6]+0.239*[#  10]+0.239*[#  14]+
    |psi|^2 = 0.957
==== e(  11) =     7.42686 eV ==== 
     psi = 0.028*[#   1]+0.028*[#   5]+0.028*[#   9]+0.028*[#  13]+0.003*[#   3]+
          +0.003*[#   7]+0.003*[#  11]+0.003*[#  15]+0.001*[#   4]+0.001*[#   8]+
          +0.001*[#  12]+0.001*[#  16]+
    |psi|^2 = 0.130
==== e(  12) =     7.77971 eV ==== 
     psi = 0.113*[#   1]+0.113*[#   5]+0.113*[#   9]+0.113*[#  13]+0.056*[#   3]+
          +0.056*[#   7]+0.056*[#  11]+0.056*[#  15]+0.017*[#   4]+0.017*[#   8]+
          +0.017*[#  12]+0.017*[#  16]+
    |psi|^2 = 0.743

 k =   0.4166666667  0.1443375673  0.0000000000
==== e(   1) =   -16.64986 eV ==== 
     psi = 0.143*[#   1]+0.143*[#   5]+0.143*[#   9]+0.143*[#  13]+0.091*[#   3]+
          +0.091*[#   7]+0.091*[#  11]+0.091*[#  15]+0.012*[#   4]+0.012*[#   8]+
          +0.012*[#  12]+0.012*[#  16]+
    |psi|^2 = 0.979
==== e(   2) =   -16.56692 eV ==== 
     psi = 0.145*[#   1]+0.145*[#   5]+0.145*[#   9]+0.145*[#  13]+0.090*[#   3]+
          +0.090*[#   7]+0.090*[#  11]+0.090*[#  15]+0.011*[#   4]+0.011*[#   8]+
          +0.011*[#  12]+0.011*[#  16]+
    |psi|^2 = 0.985
==== e(   3) =   -11.13568 eV ==== 
     psi = 0.120*[#   3]+0.120*[#   7]+0.120*[#  11]+0.120*[#  15]+0.073*[#   1]+
          +0.073*[#   5]+0.073*[#   9]+0.073*[#  13]+0.054*[#   4]+0.054*[#   8]+
          +0.054*[#  12]+0.054*[#  16]+
    |psi|^2 = 0.988
==== e(   4) =   -11.08490 eV ==== 
     psi = 0.121*[#   3]+0.121*[#   7]+0.121*[#  11]+0.121*[#  15]+0.073*[#   1]+
          +0.073*[#   5]+0.072*[#   9]+0.072*[#  13]+0.055*[#   4]+0.055*[#   8]+
          +0.055*[#  12]+0.055*[#  16]+
    |psi|^2 = 0.991
==== e(   5) =    -7.08806 eV ==== 
     psi = 0.179*[#  12]+0.179*[#  16]+0.178*[#   4]+0.178*[#   8]+0.062*[#   3]+
          +0.062*[#   7]+0.063*[#  11]+0.063*[#  15]+0.008*[#   1]+0.008*[#   5]+
          +0.008*[#   9]+0.008*[#  13]+
    |psi|^2 = 0.994
==== e(   6) =    -7.06660 eV ==== 
     psi = 0.178*[#   4]+0.178*[#   8]+0.178*[#  12]+0.178*[#  16]+0.063*[#   3]+
          +0.063*[#   7]+0.063*[#  11]+0.063*[#  15]+0.008*[#   1]+0.008*[#   5]+
          +0.007*[#   9]+0.007*[#  13]+
    |psi|^2 = 0.995
==== e(   7) =    -4.57290 eV ==== 
     psi = 0.249*[#   2]+0.249*[#   6]+0.249*[#  10]+0.249*[#  14]+
    |psi|^2 = 0.995
==== e(   8) =    -3.93083 eV ==== 
     psi = 0.249*[#   2]+0.249*[#   6]+0.249*[#  10]+0.249*[#  14]+
    |psi|^2 = 0.996
==== e(   9) =     2.95891 eV ==== 
     psi = 0.236*[#   2]+0.236*[#   6]+0.236*[#  10]+0.236*[#  14]+
    |psi|^2 = 0.945
==== e(  10) =     3.48087 eV ==== 
     psi = 0.239*[#   2]+0.239*[#   6]+0.239*[#  10]+0.239*[#  14]+
    |psi|^2 = 0.957
==== e(  11) =     7.42676 eV ==== 
     psi = 0.028*[#   1]+0.028*[#   5]+0.028*[#   9]+0.028*[#  13]+0.003*[#   4]+
          +0.003*[#   8]+0.003*[#  12]+0.003*[#  16]+0.002*[#   3]+0.002*[#   7]+
          +0.002*[#  11]+0.002*[#  15]+
    |psi|^2 = 0.130
==== e(  12) =     7.77968 eV ==== 
     psi = 0.113*[#   1]+0.113*[#   5]+0.113*[#   9]+0.113*[#  13]+0.047*[#   3]+
          +0.047*[#   7]+0.047*[#  11]+0.047*[#  15]+0.026*[#   4]+0.026*[#   8]+
          +0.025*[#  12]+0.025*[#  16]+
    |psi|^2 = 0.743

 k =  -0.4166666667  0.3367876570  0.0000000000
==== e(   1) =   -15.17166 eV ==== 
     psi = 0.139*[#   1]+0.139*[#   5]+0.139*[#   9]+0.139*[#  13]+0.065*[#   3]+
          +0.065*[#   7]+0.065*[#  11]+0.065*[#  15]+0.042*[#   4]+0.042*[#   8]+
          +0.042*[#  12]+0.042*[#  16]+
    |psi|^2 = 0.986
==== e(   2) =   -15.09620 eV ==== 
     psi = 0.141*[#   1]+0.141*[#   5]+0.140*[#   9]+0.140*[#  13]+0.065*[#   3]+
          +0.065*[#   7]+0.065*[#  11]+0.065*[#  15]+0.042*[#   4]+0.042*[#   8]+
          +0.042*[#  12]+0.042*[#  16]+
    |psi|^2 = 0.989
==== e(   3) =   -13.07397 eV ==== 
     psi = 0.139*[#   3]+0.139*[#   7]+0.139*[#  11]+0.139*[#  15]+0.075*[#   1]+
          +0.075*[#   5]+0.075*[#   9]+0.075*[#  13]+0.032*[#   4]+0.032*[#   8]+
          +0.032*[#  12]+0.032*[#  16]+
    |psi|^2 = 0.982
==== e(   4) =   -13.01391 eV ==== 
     psi = 0.139*[#   3]+0.139*[#   7]+0.139*[#  11]+0.139*[#  15]+0.076*[#   1]+
          +0.076*[#   5]+0.076*[#   9]+0.076*[#  13]+0.032*[#   4]+0.032*[#   8]+
          +0.032*[#  12]+0.032*[#  16]+
    |psi|^2 = 0.986
==== e(   5) =    -7.41522 eV ==== 
     psi = 0.181*[#  12]+0.181*[#  16]+0.181*[#   4]+0.181*[#   8]+0.060*[#   3]+
          +0.060*[#   7]+0.060*[#  11]+0.060*[#  15]+0.008*[#   1]+0.008*[#   5]+
          +0.008*[#   9]+0.008*[#  13]+
    |psi|^2 = 0.994
==== e(   6) =    -7.39321 eV ==== 
     psi = 0.181*[#   4]+0.181*[#   8]+0.181*[#  12]+0.181*[#  16]+0.060*[#   3]+
          +0.060*[#   7]+0.060*[#  11]+0.060*[#  15]+0.008*[#   1]+0.008*[#   5]+
          +0.008*[#   9]+0.008*[#  13]+
    |psi|^2 = 0.995
==== e(   7) =    -3.23202 eV ==== 
     psi = 0.249*[#   2]+0.249*[#   6]+0.249*[#  10]+0.249*[#  14]+
    |psi|^2 = 0.997
==== e(   8) =    -2.66870 eV ==== 
     psi = 0.249*[#   2]+0.249*[#   6]+0.249*[#  10]+0.249*[#  14]+
    |psi|^2 = 0.997
==== e(   9) =     1.14309 eV ==== 
     psi = 0.237*[#   2]+0.237*[#   6]+0.237*[#  10]+0.237*[#  14]+
    |psi|^2 = 0.949
==== e(  10) =     1.77981 eV ==== 
     psi = 0.240*[#   2]+0.240*[#   6]+0.240*[#  10]+0.240*[#  14]+
    |psi|^2 = 0.958
==== e(  11) =     7.53861 eV ==== 
     psi = 0.155*[#   1]+0.155*[#   5]+0.155*[#   9]+0.155*[#  13]+0.044*[#   3]+
          +0.044*[#   7]+0.044*[#  11]+0.044*[#  15]+0.017*[#   4]+0.017*[#   8]+
          +0.017*[#  12]+0.017*[#  16]+
    |psi|^2 = 0.862
==== e(  12) =     7.68904 eV ==== 
     psi = 0.156*[#   1]+0.156*[#   5]+0.156*[#   9]+0.156*[#  13]+0.046*[#   3]+
          +0.046*[#   7]+0.046*[#  11]+0.046*[#  15]+0.018*[#   4]+0.018*[#   8]+
          +0.018*[#  12]+0.018*[#  16]+
    |psi|^2 = 0.876

 k =   0.5000000000  0.1924500897  0.0000000000
==== e(   1) =   -15.17165 eV ==== 
     psi = 0.139*[#   1]+0.139*[#   5]+0.139*[#   9]+0.139*[#  13]+0.092*[#   3]+
          +0.092*[#   7]+0.092*[#  11]+0.092*[#  15]+0.016*[#   4]+0.016*[#   8]+
          +0.016*[#  12]+0.016*[#  16]+
    |psi|^2 = 0.986
==== e(   2) =   -15.09620 eV ==== 
     psi = 0.141*[#   1]+0.141*[#   5]+0.140*[#   9]+0.140*[#  13]+0.091*[#   3]+
          +0.091*[#   7]+0.091*[#  11]+0.091*[#  15]+0.016*[#   4]+0.016*[#   8]+
          +0.016*[#  12]+0.016*[#  16]+
    |psi|^2 = 0.989
==== e(   3) =   -13.07395 eV ==== 
     psi = 0.116*[#   3]+0.116*[#   7]+0.116*[#  11]+0.116*[#  15]+0.075*[#   1]+
          +0.075*[#   5]+0.075*[#   9]+0.075*[#  13]+0.055*[#   4]+0.055*[#   8]+
          +0.055*[#  12]+0.055*[#  16]+
    |psi|^2 = 0.982
==== e(   4) =   -13.01389 eV ==== 
     psi = 0.116*[#   3]+0.116*[#   7]+0.116*[#  11]+0.116*[#  15]+0.076*[#   1]+
          +0.076*[#   5]+0.076*[#   9]+0.076*[#  13]+0.055*[#   4]+0.055*[#   8]+
          +0.055*[#  12]+0.055*[#  16]+
    |psi|^2 = 0.986
[...]
          +0.086*[#   7]+0.086*[#  11]+0.086*[#  15]+0.017*[#   1]+0.017*[#   5]+
          +0.017*[#   9]+0.017*[#  13]+
    |psi|^2 = 0.992
==== e(   7) =    -4.88489 eV ==== 
     psi = 0.248*[#   2]+0.248*[#   6]+0.248*[#  10]+0.248*[#  14]+
    |psi|^2 = 0.994
==== e(   8) =    -4.22555 eV ==== 
     psi = 0.249*[#   2]+0.249*[#   6]+0.249*[#  10]+0.249*[#  14]+
    |psi|^2 = 0.996
==== e(   9) =     3.71007 eV ==== 
     psi = 0.242*[#   2]+0.242*[#   6]+0.242*[#  10]+0.242*[#  14]+
    |psi|^2 = 0.967
==== e(  10) =     4.13369 eV ==== 
     psi = 0.243*[#   2]+0.243*[#   6]+0.243*[#  10]+0.243*[#  14]+
    |psi|^2 = 0.972
==== e(  11) =     7.05560 eV ==== 
     psi = 0.003*[#   4]+0.003*[#   8]+0.003*[#  12]+0.003*[#  16]+0.001*[#   3]+
          +0.001*[#   7]+0.001*[#  11]+0.001*[#  15]+
    |psi|^2 = 0.018
==== e(  12) =     7.49198 eV ==== 
     psi = 0.001*[#   4]+0.001*[#   8]+0.001*[#  12]+0.001*[#  16]+
    |psi|^2 = 0.009

 k =   0.4166666667  0.0481125224  0.0000000000
==== e(   1) =   -16.96242 eV ==== 
     psi = 0.145*[#   1]+0.145*[#   5]+0.145*[#   9]+0.145*[#  13]+0.097*[#   3]+
          +0.097*[#   7]+0.097*[#  11]+0.097*[#  15]+0.003*[#   4]+0.003*[#   8]+
          +0.003*[#  12]+0.003*[#  16]+
    |psi|^2 = 0.979
==== e(   2) =   -16.87781 eV ==== 
     psi = 0.147*[#   1]+0.147*[#   5]+0.147*[#   9]+0.147*[#  13]+0.096*[#   3]+
          +0.096*[#   7]+0.096*[#  11]+0.096*[#  15]+0.003*[#   4]+0.003*[#   8]+
          +0.003*[#  12]+0.003*[#  16]+
    |psi|^2 = 0.984
==== e(   3) =    -9.99905 eV ==== 
     psi = 0.128*[#   3]+0.128*[#   7]+0.128*[#  11]+0.128*[#  15]+0.068*[#   1]+
          +0.068*[#   5]+0.068*[#   9]+0.068*[#  13]+0.052*[#   4]+0.052*[#   8]+
          +0.052*[#  12]+0.052*[#  16]+
    |psi|^2 = 0.993
==== e(   4) =    -9.95481 eV ==== 
     psi = 0.128*[#   3]+0.128*[#   7]+0.128*[#  11]+0.128*[#  15]+0.068*[#   1]+
          +0.068*[#   5]+0.068*[#   9]+0.068*[#  13]+0.052*[#   4]+0.052*[#   8]+
          +0.052*[#  12]+0.052*[#  16]+
    |psi|^2 = 0.994
==== e(   5) =    -7.98369 eV ==== 
     psi = 0.179*[#  12]+0.179*[#  16]+0.179*[#   4]+0.179*[#   8]+0.051*[#   3]+
          +0.051*[#   7]+0.051*[#  11]+0.051*[#  15]+0.018*[#   1]+0.018*[#   5]+
          +0.018*[#   9]+0.018*[#  13]+
    |psi|^2 = 0.990
==== e(   6) =    -7.95374 eV ==== 
     psi = 0.179*[#   4]+0.179*[#   8]+0.179*[#  12]+0.179*[#  16]+0.052*[#   3]+
          +0.052*[#   7]+0.052*[#  11]+0.052*[#  15]+0.017*[#   1]+0.017*[#   5]+
          +0.017*[#   9]+0.017*[#  13]+
    |psi|^2 = 0.992
==== e(   7) =    -4.88499 eV ==== 
     psi = 0.248*[#   2]+0.248*[#   6]+0.248*[#  10]+0.248*[#  14]+
    |psi|^2 = 0.994
==== e(   8) =    -4.22566 eV ==== 
     psi = 0.249*[#   2]+0.249*[#   6]+0.249*[#  10]+0.249*[#  14]+
    |psi|^2 = 0.996
==== e(   9) =     3.71041 eV ==== 
     psi = 0.242*[#   2]+0.242*[#   6]+0.242*[#  10]+0.242*[#  14]+
    |psi|^2 = 0.967
==== e(  10) =     4.13404 eV ==== 
     psi = 0.243*[#   2]+0.243*[#   6]+0.243*[#  10]+0.243*[#  14]+
    |psi|^2 = 0.972
==== e(  11) =     7.05559 eV ==== 
     psi = 0.004*[#   3]+0.004*[#   7]+0.004*[#  11]+0.004*[#  15]+
    |psi|^2 = 0.018
==== e(  12) =     7.49196 eV ==== 
     psi = 0.002*[#   3]+0.002*[#   7]+0.002*[#  11]+0.002*[#  15]+
    |psi|^2 = 0.009

 k =  -0.3333333333  0.3849001795  0.0000000000
==== e(   1) =   -15.58703 eV ==== 
     psi = 0.133*[#   1]+0.133*[#   5]+0.133*[#   9]+0.133*[#  13]+0.064*[#   4]+
          +0.064*[#   8]+0.064*[#  12]+0.064*[#  16]+0.049*[#   3]+0.049*[#   7]+
          +0.049*[#  11]+0.049*[#  15]+
    |psi|^2 = 0.983
==== e(   2) =   -15.51019 eV ==== 
     psi = 0.134*[#   1]+0.134*[#   5]+0.134*[#   9]+0.134*[#  13]+0.064*[#   4]+
          +0.064*[#   8]+0.064*[#  12]+0.064*[#  16]+0.049*[#   3]+0.049*[#   7]+
          +0.049*[#  11]+0.049*[#  15]+
    |psi|^2 = 0.987
==== e(   3) =   -11.90700 eV ==== 
     psi = 0.140*[#   3]+0.140*[#   7]+0.141*[#  11]+0.141*[#  15]+0.079*[#   1]+
          +0.079*[#   5]+0.079*[#   9]+0.079*[#  13]+0.028*[#   4]+0.028*[#   8]+
          +0.028*[#  12]+0.028*[#  16]+
    |psi|^2 = 0.988
==== e(   4) =   -11.85267 eV ==== 
     psi = 0.141*[#   3]+0.141*[#   7]+0.141*[#  11]+0.141*[#  15]+0.079*[#   1]+
          +0.079*[#   5]+0.079*[#   9]+0.079*[#  13]+0.028*[#   4]+0.028*[#   8]+
          +0.028*[#  12]+0.028*[#  16]+
    |psi|^2 = 0.990
==== e(   5) =    -8.55752 eV ==== 
     psi = 0.164*[#  12]+0.164*[#  16]+0.164*[#   4]+0.164*[#   8]+0.064*[#   3]+
          +0.064*[#   7]+0.064*[#  11]+0.064*[#  15]+0.020*[#   1]+0.020*[#   5]+
          +0.020*[#   9]+0.020*[#  13]+
    |psi|^2 = 0.991
==== e(   6) =    -8.52587 eV ==== 
     psi = 0.165*[#   4]+0.165*[#   8]+0.165*[#  12]+0.165*[#  16]+0.064*[#   3]+
          +0.064*[#   7]+0.064*[#  11]+0.064*[#  15]+0.020*[#   1]+0.020*[#   5]+
          +0.020*[#   9]+0.020*[#  13]+
    |psi|^2 = 0.993
==== e(   7) =    -3.43401 eV ==== 
     psi = 0.249*[#   2]+0.249*[#   6]+0.249*[#  10]+0.249*[#  14]+
    |psi|^2 = 0.996
==== e(   8) =    -2.83853 eV ==== 
     psi = 0.249*[#   2]+0.249*[#   6]+0.249*[#  10]+0.249*[#  14]+
    |psi|^2 = 0.997
==== e(   9) =     1.76129 eV ==== 
     psi = 0.241*[#   2]+0.241*[#   6]+0.241*[#  10]+0.241*[#  14]+
    |psi|^2 = 0.966
==== e(  10) =     2.27888 eV ==== 
     psi = 0.243*[#   2]+0.243*[#   6]+0.243*[#  10]+0.243*[#  14]+
    |psi|^2 = 0.973
==== e(  11) =     8.94881 eV ==== 
     psi = 0.012*[#   1]+0.012*[#   5]+0.012*[#   9]+0.012*[#  13]+0.002*[#   4]+
          +0.002*[#   8]+0.002*[#  12]+0.002*[#  16]+0.001*[#   3]+0.001*[#   7]+
          +0.001*[#  11]+0.001*[#  15]+
    |psi|^2 = 0.059
==== e(  12) =     9.40517 eV ==== 
     psi = 0.006*[#   1]+0.006*[#   5]+0.006*[#   9]+0.006*[#  13]+
    |psi|^2 = 0.035

 k =   0.5000000000  0.0962250449  0.0000000000
==== e(   1) =   -15.58702 eV ==== 
     psi = 0.133*[#   1]+0.133*[#   5]+0.133*[#   9]+0.133*[#  13]+0.106*[#   3]+
          +0.106*[#   7]+0.106*[#  11]+0.106*[#  15]+0.007*[#   4]+0.007*[#   8]+
          +0.007*[#  12]+0.007*[#  16]+
    |psi|^2 = 0.983
==== e(   2) =   -15.51018 eV ==== 
     psi = 0.134*[#   1]+0.134*[#   5]+0.134*[#   9]+0.134*[#  13]+0.105*[#   3]+
          +0.105*[#   7]+0.105*[#  11]+0.105*[#  15]+0.007*[#   4]+0.007*[#   8]+
          +0.007*[#  12]+0.007*[#  16]+
    |psi|^2 = 0.987
==== e(   3) =   -11.90690 eV ==== 
     psi = 0.105*[#   3]+0.105*[#   7]+0.105*[#  11]+0.105*[#  15]+0.079*[#   1]+
          +0.079*[#   5]+0.079*[#   9]+0.079*[#  13]+0.063*[#   4]+0.063*[#   8]+
          +0.063*[#  12]+0.063*[#  16]+
    |psi|^2 = 0.988
==== e(   4) =   -11.85257 eV ==== 
     psi = 0.105*[#   3]+0.105*[#   7]+0.105*[#  11]+0.105*[#  15]+0.079*[#   1]+
          +0.079*[#   5]+0.079*[#   9]+0.079*[#  13]+0.063*[#   4]+0.063*[#   8]+
          +0.063*[#  12]+0.063*[#  16]+
    |psi|^2 = 0.990
==== e(   5) =    -8.55764 eV ==== 
     psi = 0.169*[#  12]+0.169*[#  16]+0.169*[#   4]+0.169*[#   8]+0.059*[#   3]+
          +0.059*[#   7]+0.059*[#  11]+0.059*[#  15]+0.020*[#   1]+0.020*[#   5]+
          +0.020*[#   9]+0.020*[#  13]+
    |psi|^2 = 0.991
==== e(   6) =    -8.52600 eV ==== 
     psi = 0.169*[#   4]+0.169*[#   8]+0.168*[#  12]+0.168*[#  16]+0.060*[#   3]+
          +0.060*[#   7]+0.060*[#  11]+0.060*[#  15]+0.020*[#   1]+0.020*[#   5]+
          +0.020*[#   9]+0.020*[#  13]+
    |psi|^2 = 0.993
==== e(   7) =    -3.43413 eV ==== 
     psi = 0.249*[#   2]+0.249*[#   6]+0.249*[#  10]+0.249*[#  14]+
    |psi|^2 = 0.996
==== e(   8) =    -2.83865 eV ==== 
     psi = 0.249*[#   2]+0.249*[#   6]+0.249*[#  10]+0.249*[#  14]+
    |psi|^2 = 0.997
==== e(   9) =     1.76154 eV ==== 
     psi = 0.241*[#   2]+0.241*[#   6]+0.241*[#  10]+0.241*[#  14]+
    |psi|^2 = 0.966
==== e(  10) =     2.27913 eV ==== 
     psi = 0.243*[#   2]+0.243*[#   6]+0.243*[#  10]+0.243*[#  14]+
    |psi|^2 = 0.973
==== e(  11) =     8.94870 eV ==== 
     psi = 0.012*[#   1]+0.012*[#   5]+0.012*[#   9]+0.012*[#  13]+0.002*[#   4]+
          +0.002*[#   8]+0.002*[#  12]+0.002*[#  16]+
    |psi|^2 = 0.059
==== e(  12) =     9.40509 eV ==== 
     psi = 0.006*[#   1]+0.006*[#   5]+0.006*[#   9]+0.006*[#  13]+0.001*[#   4]+
          +0.001*[#   8]+0.001*[#  12]+0.001*[#  16]+
    |psi|^2 = 0.035

 k =  -0.4166666667  0.4330127019  0.0000000000
==== e(   1) =   -14.35535 eV ==== 
     psi = 0.148*[#   1]+0.148*[#   5]+0.148*[#   9]+0.148*[#  13]+0.065*[#   3]+
          +0.065*[#   7]+0.065*[#  11]+0.065*[#  15]+0.035*[#   4]+0.035*[#   8]+
          +0.035*[#  12]+0.035*[#  16]+
    |psi|^2 = 0.992
==== e(   2) =   -14.28332 eV ==== 
     psi = 0.149*[#   1]+0.149*[#   5]+0.149*[#   9]+0.149*[#  13]+0.065*[#   3]+
          +0.065*[#   7]+0.065*[#  11]+0.065*[#  15]+0.035*[#   4]+0.035*[#   8]+
          +0.035*[#  12]+0.035*[#  16]+
    |psi|^2 = 0.993
==== e(   3) =   -13.33829 eV ==== 
     psi = 0.136*[#   3]+0.136*[#   7]+0.136*[#  11]+0.136*[#  15]+0.063*[#   1]+
          +0.063*[#   5]+0.063*[#   9]+0.063*[#  13]+0.045*[#   4]+0.045*[#   8]+
          +0.045*[#  12]+0.045*[#  16]+
    |psi|^2 = 0.980
==== e(   4) =   -13.27811 eV ==== 
     psi = 0.137*[#   3]+0.137*[#   7]+0.137*[#  11]+0.137*[#  15]+0.064*[#   1]+
          +0.064*[#   5]+0.064*[#   9]+0.064*[#  13]+0.046*[#   4]+0.046*[#   8]+
          +0.046*[#  12]+0.046*[#  16]+
    |psi|^2 = 0.984
==== e(   5) =    -8.74176 eV ==== 
     psi = 0.167*[#  12]+0.167*[#  16]+0.167*[#   4]+0.167*[#   8]+0.060*[#   3]+
          +0.060*[#   7]+0.060*[#  11]+0.060*[#  15]+0.021*[#   1]+0.021*[#   5]+
          +0.021*[#   9]+0.021*[#  13]+
    |psi|^2 = 0.991
==== e(   6) =    -8.70964 eV ==== 
     psi = 0.167*[#   4]+0.167*[#   8]+0.167*[#  12]+0.167*[#  16]+0.060*[#   3]+
          +0.060*[#   7]+0.060*[#  11]+0.060*[#  15]+0.021*[#   1]+0.021*[#   5]+
          +0.021*[#   9]+0.021*[#  13]+
    |psi|^2 = 0.993
==== e(   7) =    -2.51567 eV ==== 
     psi = 0.249*[#   2]+0.249*[#   6]+0.249*[#  10]+0.249*[#  14]+
    |psi|^2 = 0.998
==== e(   8) =    -1.98229 eV ==== 
     psi = 0.249*[#   2]+0.249*[#   6]+0.249*[#  10]+0.249*[#  14]+
    |psi|^2 = 0.997
==== e(   9) =     0.66214 eV ==== 
     psi = 0.241*[#   2]+0.241*[#   6]+0.241*[#  10]+0.241*[#  14]+
    |psi|^2 = 0.965
==== e(  10) =     1.25466 eV ==== 
     psi = 0.243*[#   2]+0.243*[#   6]+0.243*[#  10]+0.243*[#  14]+
    |psi|^2 = 0.972
==== e(  11) =     9.29606 eV ==== 
     psi = 0.134*[#   1]+0.134*[#   5]+0.134*[#   9]+0.134*[#  13]+0.042*[#   3]+
          +0.042*[#   7]+0.042*[#  11]+0.042*[#  15]+0.027*[#   4]+0.027*[#   8]+
          +0.027*[#  12]+0.027*[#  16]+
    |psi|^2 = 0.813
==== e(  12) =     9.50885 eV ==== 
     psi = 0.136*[#   1]+0.136*[#   5]+0.136*[#   9]+0.136*[#  13]+0.045*[#   3]+
          +0.045*[#   7]+0.045*[#  11]+0.045*[#  15]+0.029*[#   4]+0.029*[#   8]+
          +0.029*[#  12]+0.029*[#  16]+
    |psi|^2 = 0.840

 k =   0.5000000000 -0.0000000000  0.0000000000
==== e(   1) =   -15.73447 eV ==== 
     psi = 0.132*[#   1]+0.132*[#   5]+0.132*[#   9]+0.132*[#  13]+0.110*[#   3]+
          +0.110*[#   7]+0.110*[#  11]+0.110*[#  15]+0.004*[#   4]+0.004*[#   8]+
          +0.004*[#  12]+0.004*[#  16]+
    |psi|^2 = 0.982
==== e(   2) =   -15.65705 eV ==== 
     psi = 0.134*[#   1]+0.134*[#   5]+0.134*[#   9]+0.134*[#  13]+0.109*[#   3]+
          +0.109*[#   7]+0.109*[#  11]+0.109*[#  15]+0.004*[#   4]+0.004*[#   8]+
          +0.004*[#  12]+0.004*[#  16]+
    |psi|^2 = 0.987
==== e(   3) =   -11.03315 eV ==== 
     psi = 0.114*[#   3]+0.114*[#   7]+0.114*[#  11]+0.114*[#  15]+0.087*[#   1]+
          +0.087*[#   5]+0.087*[#   9]+0.087*[#  13]+0.048*[#   4]+0.048*[#   8]+
          +0.048*[#  12]+0.048*[#  16]+
    |psi|^2 = 0.994
==== e(   4) =   -10.98331 eV ==== 
     psi = 0.114*[#   3]+0.114*[#   7]+0.114*[#  11]+0.114*[#  15]+0.087*[#   1]+
          +0.087*[#   5]+0.087*[#   9]+0.087*[#  13]+0.048*[#   4]+0.048*[#   8]+
          +0.048*[#  12]+0.048*[#  16]+
    |psi|^2 = 0.995
==== e(   5) =    -9.46302 eV ==== 
     psi = 0.183*[#  12]+0.183*[#  16]+0.183*[#   4]+0.183*[#   8]+0.046*[#   3]+
          +0.046*[#   7]+0.046*[#  11]+0.046*[#  15]+0.017*[#   1]+0.017*[#   5]+
          +0.017*[#   9]+0.017*[#  13]+
    |psi|^2 = 0.986
==== e(   6) =    -9.42517 eV ==== 
     psi = 0.183*[#   4]+0.183*[#   8]+0.183*[#  12]+0.183*[#  16]+0.047*[#   3]+
          +0.047*[#   7]+0.047*[#  11]+0.047*[#  15]+0.017*[#   1]+0.017*[#   5]+
          +0.017*[#   9]+0.017*[#  13]+
    |psi|^2 = 0.989
==== e(   7) =    -3.52376 eV ==== 
     psi = 0.249*[#   2]+0.249*[#   6]+0.249*[#  10]+0.249*[#  14]+
    |psi|^2 = 0.996
==== e(   8) =    -2.91550 eV ==== 
     psi = 0.249*[#   2]+0.249*[#   6]+0.249*[#  10]+0.249*[#  14]+
    |psi|^2 = 0.996
==== e(   9) =     2.09090 eV ==== 
     psi = 0.245*[#   2]+0.245*[#   6]+0.245*[#  10]+0.245*[#  14]+
    |psi|^2 = 0.981
==== e(  10) =     2.53864 eV ==== 
     psi = 0.246*[#   2]+0.246*[#   6]+0.246*[#  10]+0.246*[#  14]+
    |psi|^2 = 0.983
==== e(  11) =     8.76166 eV ==== 
     psi = 0.001*[#   3]+0.001*[#   7]+0.001*[#  11]+0.001*[#  15]+0.001*[#   1]+
          +0.001*[#   5]+0.001*[#   9]+0.001*[#  13]+
    |psi|^2 = 0.011
==== e(  12) =     9.16183 eV ==== 
     psi = 
    |psi|^2 = 0.004

 k =  -0.3333333333  0.4811252243  0.0000000000
==== e(   1) =   -14.31338 eV ==== 
     psi = 0.126*[#   1]+0.126*[#   5]+0.126*[#   9]+0.126*[#  13]+0.078*[#   4]+
          +0.078*[#   8]+0.078*[#  12]+0.078*[#  16]+0.043*[#   3]+0.043*[#   7]+
          +0.043*[#  11]+0.043*[#  15]+
    |psi|^2 = 0.988
==== e(   2) =   -14.24354 eV ==== 
     psi = 0.127*[#   1]+0.127*[#   5]+0.127*[#   9]+0.127*[#  13]+0.078*[#   4]+
          +0.078*[#   8]+0.078*[#  12]+0.078*[#  16]+0.043*[#   3]+0.043*[#   7]+
          +0.043*[#  11]+0.043*[#  15]+
    |psi|^2 = 0.991
==== e(   3) =   -12.45278 eV ==== 
     psi = 0.125*[#   3]+0.125*[#   7]+0.125*[#  11]+0.125*[#  15]+0.092*[#   1]+
          +0.092*[#   5]+0.092*[#   9]+0.092*[#  13]+0.031*[#   4]+0.031*[#   8]+
          +0.031*[#  12]+0.031*[#  16]+
    |psi|^2 = 0.989
==== e(   4) =   -12.39517 eV ==== 
     psi = 0.125*[#   3]+0.125*[#   7]+0.125*[#  11]+0.125*[#  15]+0.092*[#   1]+
          +0.092*[#   5]+0.092*[#   9]+0.092*[#  13]+0.031*[#   4]+0.031*[#   8]+
          +0.031*[#  12]+0.031*[#  16]+
    |psi|^2 = 0.991
==== e(   5) =   -10.16862 eV ==== 
     psi = 0.143*[#  12]+0.143*[#  16]+0.143*[#   4]+0.143*[#   8]+0.083*[#   3]+
          +0.083*[#   7]+0.083*[#  11]+0.083*[#  15]+0.020*[#   1]+0.020*[#   5]+
          +0.020*[#   9]+0.020*[#  13]+
    |psi|^2 = 0.986
==== e(   6) =   -10.12744 eV ==== 
     psi = 0.144*[#   4]+0.144*[#   8]+0.144*[#  12]+0.144*[#  16]+0.083*[#   3]+
          +0.083*[#   7]+0.083*[#  11]+0.083*[#  15]+0.020*[#   1]+0.020*[#   5]+
          +0.020*[#   9]+0.020*[#  13]+
    |psi|^2 = 0.988
==== e(   7) =    -2.11265 eV ==== 
     psi = 0.249*[#   2]+0.249*[#   6]+0.249*[#  10]+0.249*[#  14]+
    |psi|^2 = 0.996
==== e(   8) =    -1.56958 eV ==== 
     psi = 0.249*[#   2]+0.249*[#   6]+0.249*[#  10]+0.249*[#  14]+
    |psi|^2 = 0.996
==== e(   9) =     0.55199 eV ==== 
     psi = 0.246*[#   2]+0.246*[#   6]+0.246*[#  10]+0.246*[#  14]+
    |psi|^2 = 0.984
==== e(  10) =     1.05119 eV ==== 
     psi = 0.247*[#   2]+0.247*[#   6]+0.247*[#  10]+0.247*[#  14]+
    |psi|^2 = 0.986
==== e(  11) =     9.75070 eV ==== 
     psi = 0.001*[#   2]+0.001*[#   6]+0.001*[#  10]+0.001*[#  14]+
    |psi|^2 = 0.009
==== e(  12) =    10.74344 eV ==== 
     psi = 0.012*[#   1]+0.012*[#   5]+0.012*[#   9]+0.012*[#  13]+0.003*[#   3]+
          +0.003*[#   7]+0.003*[#  11]+0.003*[#  15]+0.002*[#   4]+0.002*[#   8]+
          +0.002*[#  12]+0.002*[#  16]+
    |psi|^2 = 0.069

 k =   0.5833333333  0.0481125224  0.0000000000
==== e(   1) =   -14.31341 eV ==== 
     psi = 0.126*[#   1]+0.126*[#   5]+0.126*[#   9]+0.126*[#  13]+0.107*[#   3]+
          +0.107*[#   7]+0.107*[#  11]+0.107*[#  15]+0.014*[#   4]+0.014*[#   8]+
          +0.014*[#  12]+0.014*[#  16]+
    |psi|^2 = 0.988
==== e(   2) =   -14.24357 eV ==== 
     psi = 0.127*[#   1]+0.127*[#   5]+0.127*[#   9]+0.127*[#  13]+0.107*[#   3]+
          +0.107*[#   7]+0.107*[#  11]+0.107*[#  15]+0.014*[#   4]+0.014*[#   8]+
          +0.014*[#  12]+0.014*[#  16]+
    |psi|^2 = 0.991
==== e(   3) =   -12.45258 eV ==== 
     psi = 0.092*[#   3]+0.092*[#   7]+0.092*[#  11]+0.092*[#  15]+0.092*[#   1]+
          +0.092*[#   5]+0.092*[#   9]+0.092*[#  13]+0.063*[#   4]+0.063*[#   8]+
          +0.063*[#  12]+0.063*[#  16]+
    |psi|^2 = 0.989
==== e(   4) =   -12.39497 eV ==== 
     psi = 0.092*[#   3]+0.092*[#   7]+0.092*[#  11]+0.092*[#  15]+0.092*[#   1]+
          +0.092*[#   5]+0.092*[#   9]+0.092*[#  13]+0.063*[#   4]+0.063*[#   8]+
          +0.063*[#  12]+0.063*[#  16]+
    |psi|^2 = 0.991
==== e(   5) =   -10.16880 eV ==== 
     psi = 0.165*[#  12]+0.165*[#  16]+0.165*[#   4]+0.165*[#   8]+0.061*[#   3]+
          +0.061*[#   7]+0.061*[#  11]+0.061*[#  15]+0.020*[#   1]+0.020*[#   5]+
          +0.020*[#   9]+0.020*[#  13]+
    |psi|^2 = 0.986
==== e(   6) =   -10.12762 eV ==== 
     psi = 0.166*[#   4]+0.166*[#   8]+0.165*[#  12]+0.165*[#  16]+0.062*[#   3]+
          +0.062*[#   7]+0.062*[#  11]+0.062*[#  15]+0.020*[#   1]+0.020*[#   5]+
          +0.020*[#   9]+0.020*[#  13]+
    |psi|^2 = 0.988
==== e(   7) =    -2.11286 eV ==== 
     psi = 0.249*[#   2]+0.249*[#   6]+0.249*[#  10]+0.249*[#  14]+
    |psi|^2 = 0.996
==== e(   8) =    -1.56980 eV ==== 
     psi = 0.249*[#   2]+0.249*[#   6]+0.249*[#  10]+0.249*[#  14]+
    |psi|^2 = 0.996
==== e(   9) =     0.55229 eV ==== 
     psi = 0.246*[#   2]+0.246*[#   6]+0.246*[#  10]+0.246*[#  14]+
    |psi|^2 = 0.984
==== e(  10) =     1.05150 eV ==== 
     psi = 0.247*[#   2]+0.247*[#   6]+0.247*[#  10]+0.247*[#  14]+
    |psi|^2 = 0.986
==== e(  11) =     9.75056 eV ==== 
     psi = 0.001*[#   2]+0.001*[#   6]+0.001*[#  10]+0.001*[#  14]+
    |psi|^2 = 0.009
==== e(  12) =    10.74331 eV ==== 
     psi = 0.012*[#   1]+0.012*[#   5]+0.012*[#   9]+0.012*[#  13]+0.004*[#   4]+
          +0.004*[#   8]+0.004*[#  12]+0.004*[#  16]+
    |psi|^2 = 0.069

Lowdin Charges: 

     Atom #   1: total charge =   3.9570, s =  0.9179, p =  3.0391, 
                 spin up      =   1.9785, s =  0.4590, 
                 spin up      =   1.9785, p =  1.5196, pz=  0.4945, px=  0.5125, py=  0.5126, 
                 spin down    =   1.9785, s =  0.4590, 
                 spin down    =   1.9785, p =  1.5196, pz=  0.4945, px=  0.5125, py=  0.5126, 
                 polarization =   0.0000, s =  0.0000, p =  0.0000, 
     Atom #   2: total charge =   3.9570, s =  0.9179, p =  3.0391, 
                 spin up      =   1.9785, s =  0.4590, 
                 spin up      =   1.9785, p =  1.5196, pz=  0.4945, px=  0.5125, py=  0.5126, 
                 spin down    =   1.9785, s =  0.4590, 
                 spin down    =   1.9785, p =  1.5196, pz=  0.4945, px=  0.5125, py=  0.5126, 
                 polarization =  -0.0000, s = -0.0000, p = -0.0000, 
     Atom #   3: total charge =   3.9570, s =  0.9179, p =  3.0391, 
                 spin up      =   1.9785, s =  0.4590, 
                 spin up      =   1.9785, p =  1.5196, pz=  0.4945, px=  0.5125, py=  0.5126, 
                 spin down    =   1.9785, s =  0.4590, 
                 spin down    =   1.9785, p =  1.5196, pz=  0.4945, px=  0.5125, py=  0.5126, 
                 polarization =  -0.0000, s = -0.0000, p = -0.0000, 
     Atom #   4: total charge =   3.9570, s =  0.9179, p =  3.0391, 
                 spin up      =   1.9785, s =  0.4590, 
                 spin up      =   1.9785, p =  1.5196, pz=  0.4945, px=  0.5125, py=  0.5126, 
                 spin down    =   1.9785, s =  0.4590, 
                 spin down    =   1.9785, p =  1.5196, pz=  0.4945, px=  0.5125, py=  0.5126, 
                 polarization =   0.0000, s =  0.0000, p =  0.0000, 
     Spilling Parameter:   0.0107
