
     Program PWSCF v.5.1 starts on 16Apr2020 at 14: 6: 6 

     This program is part of the open-source Quantum ESPRESSO suite
     for quantum simulation of materials; please cite
         "P. Giannozzi et al., J. Phys.:Condens. Matter 21 395502 (2009);
          URL http://www.quantum-espresso.org", 
     in publications or presentations arising from this work. More details at
     http://www.quantum-espresso.org/quote

     Parallel version (MPI), running on     1 processors
     Waiting for input...
     Reading input from standard input

     Current dimensions of program PWSCF are:
     Max number of different atomic species (ntypx) = 10
     Max number of k-points (npk) =  40000
     Max angular momentum in pseudopotentials (lmaxx) =  3

     Atomic positions and unit cell read from directory:
     ../tmp/gra.spin.save/


     IMPORTANT: XC functional enforced from input :
     Exchange-correlation      = PBE ( 1  4  3  4 0)
     Any further DFT definition will be discarded
     Please, verify this is what you really want

               file C.pbe-rrkjus.UPF: wavefunction(s)  2S 2P renormalized

     Subspace diagonalization in iterative solution of the eigenvalue problem:
     a serial algorithm will be used


     G-vector sticks info
     --------------------
     sticks:   dense  smooth     PW     G-vecs:    dense   smooth      PW
     Sum         595     241     85                96043    24369    4587

     Generating pointlists ...
     new r_m :   0.2381 (alat units)  1.1104 (a.u.) for type    1


     bravais-lattice index     =           12
     lattice parameter (alat)  =       4.6627  a.u.
     unit-cell volume          =     711.6007 (a.u.)^3
     number of atoms/cell      =            4
     number of atomic types    =            1
     number of electrons       =        16.00
     number of Kohn-Sham states=           12
     kinetic-energy cutoff     =      40.0000  Ry
     charge density cutoff     =     400.0000  Ry
     Exchange-correlation      = PBE ( 1  4  3  4 0)

     celldm(1)=   4.662710  celldm(2)=   1.000000  celldm(3)=   8.105698
     celldm(4)=  -0.500000  celldm(5)=   0.000000  celldm(6)=   0.000000

     crystal axes: (cart. coord. in units of alat)
               a(1) = (   1.000000   0.000000   0.000000 )  
               a(2) = (  -0.500000   0.866025   0.000000 )  
               a(3) = (   0.000000   0.000000   8.105698 )  

     reciprocal axes: (cart. coord. in units 2 pi/alat)
               b(1) = (  1.000000  0.577350 -0.000000 )  
               b(2) = (  0.000000  1.154701  0.000000 )  
               b(3) = (  0.000000 -0.000000  0.123370 )  


     PseudoPot. # 1 for C  read from file:
     ../pseudo/C.pbe-rrkjus.UPF
     MD5 check sum: 00fb224312de0c5b6853bd333518df6f
     Pseudo is Ultrasoft, Zval =  4.0
     Generated by new atomic code, or converted to UPF format
     Using radial grid of  627 points,  4 beta functions with: 
                l(1) =   0
                l(2) =   0
                l(3) =   1
                l(4) =   1
     Q(r) pseudized with 0 coefficients 


     atomic species   valence    mass     pseudopotential
        C              4.00    12.01100     C ( 1.00)

     Starting magnetic structure 
     atomic species   magnetization
        C           -0.500

      2 Sym. Ops. (no inversion) found
          (note:  6 additional sym.ops. were found but ignored
           their fractional translations are incommensurate with FFT grid)

                                    s                        frac. trans.

      isym =  1     identity                                     

 cryst.   s( 1) = (     1          0          0      )
                  (     0          1          0      )
                  (     0          0          1      )

 cart.    s( 1) = (  1.0000000  0.0000000  0.0000000 )
                  (  0.0000000  1.0000000  0.0000000 )
                  (  0.0000000  0.0000000  1.0000000 )


      isym =  2     inv. 180 deg rotation - cart. axis [1,0,0]   

 cryst.   s( 2) = (    -1          0          0      )
                  (     1          1          0      )
                  (     0          0          1      )

 cart.    s( 2) = ( -1.0000000  0.0000000  0.0000000 )
                  (  0.0000000  1.0000000  0.0000000 )
                  (  0.0000000  0.0000000  1.0000000 )


     point group C_s (m)    
     there are  2 classes
     the character table:

       E     s    
A'     1.00  1.00
A''    1.00 -1.00

     the symmetry operations in each class:
     E        1
     s        2

   Cartesian axes

     site n.     atom                  positions (alat units)
         1           C   tau(   1) = (   0.0000000   0.0000000   2.0264246  )
         2           C   tau(   2) = (   0.0000000   0.5773284   2.0264246  )
         3           C   tau(   3) = (   0.0000000   0.0000000   3.4530275  )
         4           C   tau(   4) = (   0.0000000   0.5773284   3.4530275  )

   Crystallographic axes

     site n.     atom                  positions (cryst. coord.)
         1           C   tau(   1) = (  0.0000000  0.0000000  0.2500000  )
         2           C   tau(   2) = (  0.3333207  0.6666414  0.2500000  )
         3           C   tau(   3) = (  0.0000000  0.0000000  0.4260000  )
         4           C   tau(   4) = (  0.3333207  0.6666414  0.4260000  )

     number of k points=    86  Marzari-Vanderbilt smearing, width (Ry)=  0.0001
                       cart. coord. in units 2pi/alat
        k(    1) = (   0.0000000   0.0000000   0.0000000), wk =   0.0069444
        k(    2) = (   0.0000000   0.0962250   0.0000000), wk =   0.0138889
        k(    3) = (   0.0000000   0.1924501   0.0000000), wk =   0.0138889
        k(    4) = (   0.0000000   0.2886751   0.0000000), wk =   0.0138889
        k(    5) = (   0.0000000   0.3849002   0.0000000), wk =   0.0138889
        k(    6) = (   0.0000000   0.4811252   0.0000000), wk =   0.0138889
        k(    7) = (   0.0000000  -0.5773503   0.0000000), wk =   0.0069444
        k(    8) = (   0.0833333   0.1443376   0.0000000), wk =   0.0277778
        k(    9) = (   0.0833333   0.2405626   0.0000000), wk =   0.0277778
        k(   10) = (   0.0833333   0.3367877   0.0000000), wk =   0.0277778
        k(   11) = (   0.0833333   0.4330127   0.0000000), wk =   0.0277778
        k(   12) = (   0.0833333   0.5292377   0.0000000), wk =   0.0277778
        k(   13) = (   0.1666667   0.2886751   0.0000000), wk =   0.0277778
        k(   14) = (   0.1666667   0.3849002   0.0000000), wk =   0.0277778
        k(   15) = (   0.1666667   0.4811252   0.0000000), wk =   0.0277778
        k(   16) = (   0.1666667   0.5773503   0.0000000), wk =   0.0138889
        k(   17) = (   0.2500000   0.4330127   0.0000000), wk =   0.0277778
        k(   18) = (   0.2500000   0.5292377   0.0000000), wk =   0.0277778
        k(   19) = (   0.3333333   0.5773503   0.0000000), wk =   0.0138889
        k(   20) = (  -0.0833333   0.0481125   0.0000000), wk =   0.0277778
        k(   21) = (  -0.1666667   0.0962250   0.0000000), wk =   0.0277778
        k(   22) = (  -0.2500000   0.1443376   0.0000000), wk =   0.0277778
        k(   23) = (  -0.3333333   0.1924501   0.0000000), wk =   0.0277778
        k(   24) = (  -0.4166667   0.2405626   0.0000000), wk =   0.0277778
        k(   25) = (   0.5000000  -0.2886751   0.0000000), wk =   0.0138889
        k(   26) = (   0.1666667  -0.0000000   0.0000000), wk =   0.0138889
        k(   27) = (  -0.1666667   0.1924501   0.0000000), wk =   0.0277778
        k(   28) = (   0.2500000   0.0481125   0.0000000), wk =   0.0277778
        k(   29) = (  -0.2500000   0.2405626   0.0000000), wk =   0.0277778
        k(   30) = (   0.3333333   0.0962250   0.0000000), wk =   0.0277778
        k(   31) = (  -0.3333333   0.2886751   0.0000000), wk =   0.0277778
        k(   32) = (   0.4166667   0.1443376   0.0000000), wk =   0.0277778
        k(   33) = (  -0.4166667   0.3367877   0.0000000), wk =   0.0277778
        k(   34) = (   0.5000000   0.1924501   0.0000000), wk =   0.0277778
        k(   35) = (   0.3333333  -0.0000000   0.0000000), wk =   0.0138889
        k(   36) = (  -0.2500000   0.3367877   0.0000000), wk =   0.0277778
        k(   37) = (   0.4166667   0.0481125   0.0000000), wk =   0.0277778
        k(   38) = (  -0.3333333   0.3849002   0.0000000), wk =   0.0277778
        k(   39) = (   0.5000000   0.0962250   0.0000000), wk =   0.0277778
        k(   40) = (  -0.4166667   0.4330127   0.0000000), wk =   0.0277778
        k(   41) = (   0.5000000  -0.0000000   0.0000000), wk =   0.0138889
        k(   42) = (  -0.3333333   0.4811252   0.0000000), wk =   0.0277778
        k(   43) = (   0.5833333   0.0481125   0.0000000), wk =   0.0277778
        k(   44) = (   0.0000000   0.0000000   0.0000000), wk =   0.0069444
        k(   45) = (   0.0000000   0.0962250   0.0000000), wk =   0.0138889
        k(   46) = (   0.0000000   0.1924501   0.0000000), wk =   0.0138889
        k(   47) = (   0.0000000   0.2886751   0.0000000), wk =   0.0138889
        k(   48) = (   0.0000000   0.3849002   0.0000000), wk =   0.0138889
        k(   49) = (   0.0000000   0.4811252   0.0000000), wk =   0.0138889
        k(   50) = (   0.0000000  -0.5773503   0.0000000), wk =   0.0069444
        k(   51) = (   0.0833333   0.1443376   0.0000000), wk =   0.0277778
        k(   52) = (   0.0833333   0.2405626   0.0000000), wk =   0.0277778
        k(   53) = (   0.0833333   0.3367877   0.0000000), wk =   0.0277778
        k(   54) = (   0.0833333   0.4330127   0.0000000), wk =   0.0277778
        k(   55) = (   0.0833333   0.5292377   0.0000000), wk =   0.0277778
        k(   56) = (   0.1666667   0.2886751   0.0000000), wk =   0.0277778
        k(   57) = (   0.1666667   0.3849002   0.0000000), wk =   0.0277778
        k(   58) = (   0.1666667   0.4811252   0.0000000), wk =   0.0277778
        k(   59) = (   0.1666667   0.5773503   0.0000000), wk =   0.0138889
        k(   60) = (   0.2500000   0.4330127   0.0000000), wk =   0.0277778
        k(   61) = (   0.2500000   0.5292377   0.0000000), wk =   0.0277778
        k(   62) = (   0.3333333   0.5773503   0.0000000), wk =   0.0138889
        k(   63) = (  -0.0833333   0.0481125   0.0000000), wk =   0.0277778
        k(   64) = (  -0.1666667   0.0962250   0.0000000), wk =   0.0277778
        k(   65) = (  -0.2500000   0.1443376   0.0000000), wk =   0.0277778
        k(   66) = (  -0.3333333   0.1924501   0.0000000), wk =   0.0277778
        k(   67) = (  -0.4166667   0.2405626   0.0000000), wk =   0.0277778
        k(   68) = (   0.5000000  -0.2886751   0.0000000), wk =   0.0138889
        k(   69) = (   0.1666667  -0.0000000   0.0000000), wk =   0.0138889
        k(   70) = (  -0.1666667   0.1924501   0.0000000), wk =   0.0277778
        k(   71) = (   0.2500000   0.0481125   0.0000000), wk =   0.0277778
        k(   72) = (  -0.2500000   0.2405626   0.0000000), wk =   0.0277778
        k(   73) = (   0.3333333   0.0962250   0.0000000), wk =   0.0277778
        k(   74) = (  -0.3333333   0.2886751   0.0000000), wk =   0.0277778
        k(   75) = (   0.4166667   0.1443376   0.0000000), wk =   0.0277778
        k(   76) = (  -0.4166667   0.3367877   0.0000000), wk =   0.0277778
        k(   77) = (   0.5000000   0.1924501   0.0000000), wk =   0.0277778
        k(   78) = (   0.3333333  -0.0000000   0.0000000), wk =   0.0138889
        k(   79) = (  -0.2500000   0.3367877   0.0000000), wk =   0.0277778
        k(   80) = (   0.4166667   0.0481125   0.0000000), wk =   0.0277778
        k(   81) = (  -0.3333333   0.3849002   0.0000000), wk =   0.0277778
        k(   82) = (   0.5000000   0.0962250   0.0000000), wk =   0.0277778
        k(   83) = (  -0.4166667   0.4330127   0.0000000), wk =   0.0277778
        k(   84) = (   0.5000000  -0.0000000   0.0000000), wk =   0.0138889
        k(   85) = (  -0.3333333   0.4811252   0.0000000), wk =   0.0277778
        k(   86) = (   0.5833333   0.0481125   0.0000000), wk =   0.0277778

                       cryst. coord.
        k(    1) = (   0.0000000   0.0000000   0.0000000), wk =   0.0069444
        k(    2) = (   0.0000000   0.0833333   0.0000000), wk =   0.0138889
        k(    3) = (   0.0000000   0.1666667   0.0000000), wk =   0.0138889
        k(    4) = (   0.0000000   0.2500000   0.0000000), wk =   0.0138889
        k(    5) = (   0.0000000   0.3333333   0.0000000), wk =   0.0138889
        k(    6) = (   0.0000000   0.4166667   0.0000000), wk =   0.0138889
        k(    7) = (   0.0000000  -0.5000000   0.0000000), wk =   0.0069444
        k(    8) = (   0.0833333   0.0833333   0.0000000), wk =   0.0277778
        k(    9) = (   0.0833333   0.1666667   0.0000000), wk =   0.0277778
        k(   10) = (   0.0833333   0.2500000   0.0000000), wk =   0.0277778
        k(   11) = (   0.0833333   0.3333333   0.0000000), wk =   0.0277778
        k(   12) = (   0.0833333   0.4166667   0.0000000), wk =   0.0277778
        k(   13) = (   0.1666667   0.1666667   0.0000000), wk =   0.0277778
        k(   14) = (   0.1666667   0.2500000   0.0000000), wk =   0.0277778
        k(   15) = (   0.1666667   0.3333333   0.0000000), wk =   0.0277778
        k(   16) = (   0.1666667   0.4166667   0.0000000), wk =   0.0138889
        k(   17) = (   0.2500000   0.2500000   0.0000000), wk =   0.0277778
        k(   18) = (   0.2500000   0.3333333   0.0000000), wk =   0.0277778
        k(   19) = (   0.3333333   0.3333333   0.0000000), wk =   0.0138889
        k(   20) = (  -0.0833333   0.0833333   0.0000000), wk =   0.0277778
        k(   21) = (  -0.1666667   0.1666667   0.0000000), wk =   0.0277778
        k(   22) = (  -0.2500000   0.2500000   0.0000000), wk =   0.0277778
        k(   23) = (  -0.3333333   0.3333333   0.0000000), wk =   0.0277778
        k(   24) = (  -0.4166667   0.4166667   0.0000000), wk =   0.0277778
        k(   25) = (   0.5000000  -0.5000000   0.0000000), wk =   0.0138889
        k(   26) = (   0.1666667  -0.0833333   0.0000000), wk =   0.0138889
        k(   27) = (  -0.1666667   0.2500000   0.0000000), wk =   0.0277778
        k(   28) = (   0.2500000  -0.0833333   0.0000000), wk =   0.0277778
        k(   29) = (  -0.2500000   0.3333333   0.0000000), wk =   0.0277778
        k(   30) = (   0.3333333  -0.0833333   0.0000000), wk =   0.0277778
        k(   31) = (  -0.3333333   0.4166667   0.0000000), wk =   0.0277778
        k(   32) = (   0.4166667  -0.0833333   0.0000000), wk =   0.0277778
        k(   33) = (  -0.4166667   0.5000000   0.0000000), wk =   0.0277778
        k(   34) = (   0.5000000  -0.0833333   0.0000000), wk =   0.0277778
        k(   35) = (   0.3333333  -0.1666667   0.0000000), wk =   0.0138889
        k(   36) = (  -0.2500000   0.4166667   0.0000000), wk =   0.0277778
        k(   37) = (   0.4166667  -0.1666667   0.0000000), wk =   0.0277778
        k(   38) = (  -0.3333333   0.5000000   0.0000000), wk =   0.0277778
        k(   39) = (   0.5000000  -0.1666667   0.0000000), wk =   0.0277778
        k(   40) = (  -0.4166667   0.5833333   0.0000000), wk =   0.0277778
        k(   41) = (   0.5000000  -0.2500000   0.0000000), wk =   0.0138889
        k(   42) = (  -0.3333333   0.5833333   0.0000000), wk =   0.0277778
        k(   43) = (   0.5833333  -0.2500000   0.0000000), wk =   0.0277778
        k(   44) = (   0.0000000   0.0000000   0.0000000), wk =   0.0069444
        k(   45) = (   0.0000000   0.0833333   0.0000000), wk =   0.0138889
        k(   46) = (   0.0000000   0.1666667   0.0000000), wk =   0.0138889
        k(   47) = (   0.0000000   0.2500000   0.0000000), wk =   0.0138889
        k(   48) = (   0.0000000   0.3333333   0.0000000), wk =   0.0138889
        k(   49) = (   0.0000000   0.4166667   0.0000000), wk =   0.0138889
        k(   50) = (   0.0000000  -0.5000000   0.0000000), wk =   0.0069444
        k(   51) = (   0.0833333   0.0833333   0.0000000), wk =   0.0277778
        k(   52) = (   0.0833333   0.1666667   0.0000000), wk =   0.0277778
        k(   53) = (   0.0833333   0.2500000   0.0000000), wk =   0.0277778
        k(   54) = (   0.0833333   0.3333333   0.0000000), wk =   0.0277778
        k(   55) = (   0.0833333   0.4166667   0.0000000), wk =   0.0277778
        k(   56) = (   0.1666667   0.1666667   0.0000000), wk =   0.0277778
        k(   57) = (   0.1666667   0.2500000   0.0000000), wk =   0.0277778
        k(   58) = (   0.1666667   0.3333333   0.0000000), wk =   0.0277778
        k(   59) = (   0.1666667   0.4166667   0.0000000), wk =   0.0138889
        k(   60) = (   0.2500000   0.2500000   0.0000000), wk =   0.0277778
        k(   61) = (   0.2500000   0.3333333   0.0000000), wk =   0.0277778
        k(   62) = (   0.3333333   0.3333333   0.0000000), wk =   0.0138889
        k(   63) = (  -0.0833333   0.0833333   0.0000000), wk =   0.0277778
        k(   64) = (  -0.1666667   0.1666667   0.0000000), wk =   0.0277778
        k(   65) = (  -0.2500000   0.2500000   0.0000000), wk =   0.0277778
        k(   66) = (  -0.3333333   0.3333333   0.0000000), wk =   0.0277778
        k(   67) = (  -0.4166667   0.4166667   0.0000000), wk =   0.0277778
        k(   68) = (   0.5000000  -0.5000000   0.0000000), wk =   0.0138889
        k(   69) = (   0.1666667  -0.0833333   0.0000000), wk =   0.0138889
        k(   70) = (  -0.1666667   0.2500000   0.0000000), wk =   0.0277778
        k(   71) = (   0.2500000  -0.0833333   0.0000000), wk =   0.0277778
        k(   72) = (  -0.2500000   0.3333333   0.0000000), wk =   0.0277778
        k(   73) = (   0.3333333  -0.0833333   0.0000000), wk =   0.0277778
        k(   74) = (  -0.3333333   0.4166667   0.0000000), wk =   0.0277778
        k(   75) = (   0.4166667  -0.0833333   0.0000000), wk =   0.0277778
        k(   76) = (  -0.4166667   0.5000000   0.0000000), wk =   0.0277778
        k(   77) = (   0.5000000  -0.0833333   0.0000000), wk =   0.0277778
        k(   78) = (   0.3333333  -0.1666667   0.0000000), wk =   0.0138889
        k(   79) = (  -0.2500000   0.4166667   0.0000000), wk =   0.0277778
        k(   80) = (   0.4166667  -0.1666667   0.0000000), wk =   0.0277778
        k(   81) = (  -0.3333333   0.5000000   0.0000000), wk =   0.0277778
        k(   82) = (   0.5000000  -0.1666667   0.0000000), wk =   0.0277778
        k(   83) = (  -0.4166667   0.5833333   0.0000000), wk =   0.0277778
        k(   84) = (   0.5000000  -0.2500000   0.0000000), wk =   0.0138889
        k(   85) = (  -0.3333333   0.5833333   0.0000000), wk =   0.0277778
        k(   86) = (   0.5833333  -0.2500000   0.0000000), wk =   0.0277778

     Dense  grid:    96043 G-vectors     FFT dimensions: (  30,  30, 243)

     Smooth grid:    24369 G-vectors     FFT dimensions: (  20,  20, 160)

     Largest allocated arrays     est. size (Mb)     dimensions
        Kohn-Sham Wavefunctions         0.56 Mb     (    3054,   12)
        NL pseudopotentials             1.49 Mb     (    3054,   32)
        Each V/rho on FFT grid          6.67 Mb     (  218700,   2)
        Each G-vector array             0.73 Mb     (   96043)
        G-vector shells                 0.04 Mb     (    4763)
     Largest temporary arrays     est. size (Mb)     dimensions
        Auxiliary wavefunctions         2.24 Mb     (    3054,   48)
        Each subspace H/S matrix        0.04 Mb     (      48,   48)
        Each <psi_i|beta_j> matrix      0.01 Mb     (      32,   12)

     The potential is recalculated from file :
     ../tmp/gra.spin.save/charge-density.dat


     negative rho (up, down):  6.896E-07 6.896E-07
     Starting wfc are   16 randomized atomic wfcs

     Band Structure Calculation
     Davidson diagonalization with overlap

     Computing kpt #:     1
     total cpu time spent up to now is        1.4 secs

     Computing kpt #:     2
     total cpu time spent up to now is        1.8 secs

     Computing kpt #:     3
     total cpu time spent up to now is        2.2 secs

     Computing kpt #:     4
     total cpu time spent up to now is        2.7 secs

     Computing kpt #:     5
     total cpu time spent up to now is        3.1 secs

     Computing kpt #:     6
     total cpu time spent up to now is        3.4 secs

     Computing kpt #:     7
     total cpu time spent up to now is        3.7 secs

     Computing kpt #:     8
     total cpu time spent up to now is        4.1 secs

     Computing kpt #:     9
     total cpu time spent up to now is        4.6 secs

     Computing kpt #:    10
     total cpu time spent up to now is        5.0 secs

     Computing kpt #:    11
     total cpu time spent up to now is        5.5 secs

     Computing kpt #:    12
     total cpu time spent up to now is        5.7 secs

     Computing kpt #:    13
     total cpu time spent up to now is        6.1 secs

     Computing kpt #:    14
     total cpu time spent up to now is        6.5 secs

     Computing kpt #:    15
     total cpu time spent up to now is        7.1 secs

     Computing kpt #:    16
     total cpu time spent up to now is        7.5 secs

     Computing kpt #:    17
     total cpu time spent up to now is        7.8 secs

     Computing kpt #:    18
     total cpu time spent up to now is        8.3 secs

     Computing kpt #:    19
     total cpu time spent up to now is        8.6 secs

     Computing kpt #:    20
     total cpu time spent up to now is        9.0 secs

     Computing kpt #:    21
     total cpu time spent up to now is        9.4 secs

     Computing kpt #:    22
     total cpu time spent up to now is        9.9 secs

     Computing kpt #:    23
     total cpu time spent up to now is       10.3 secs

     Computing kpt #:    24
     total cpu time spent up to now is       10.6 secs

     Computing kpt #:    25
     total cpu time spent up to now is       10.9 secs

     Computing kpt #:    26
     total cpu time spent up to now is       11.3 secs

     Computing kpt #:    27
     total cpu time spent up to now is       11.8 secs

     Computing kpt #:    28
     total cpu time spent up to now is       12.3 secs

     Computing kpt #:    29
     total cpu time spent up to now is       12.7 secs

     Computing kpt #:    30
     total cpu time spent up to now is       13.0 secs

     Computing kpt #:    31
     total cpu time spent up to now is       13.5 secs

     Computing kpt #:    32
     total cpu time spent up to now is       14.0 secs

     Computing kpt #:    33
     total cpu time spent up to now is       14.3 secs

     Computing kpt #:    34
     total cpu time spent up to now is       14.5 secs

     Computing kpt #:    35
     total cpu time spent up to now is       14.9 secs

     Computing kpt #:    36
     total cpu time spent up to now is       15.3 secs

     Computing kpt #:    37
     total cpu time spent up to now is       15.6 secs

     Computing kpt #:    38
     total cpu time spent up to now is       16.3 secs

     Computing kpt #:    39
     total cpu time spent up to now is       17.0 secs

     Computing kpt #:    40
     total cpu time spent up to now is       17.3 secs

     Computing kpt #:    41
     total cpu time spent up to now is       17.6 secs

     Computing kpt #:    42
     total cpu time spent up to now is       18.1 secs

     Computing kpt #:    43
     total cpu time spent up to now is       18.6 secs

     Computing kpt #:    44
     total cpu time spent up to now is       19.0 secs

     Computing kpt #:    45
     total cpu time spent up to now is       19.3 secs

     Computing kpt #:    46
     total cpu time spent up to now is       19.8 secs

     Computing kpt #:    47
     total cpu time spent up to now is       20.2 secs

     Computing kpt #:    48
     total cpu time spent up to now is       20.6 secs

     Computing kpt #:    49
     total cpu time spent up to now is       20.9 secs

     Computing kpt #:    50
     total cpu time spent up to now is       21.2 secs

     Computing kpt #:    51
     total cpu time spent up to now is       21.6 secs

     Computing kpt #:    52
     total cpu time spent up to now is       22.0 secs

     Computing kpt #:    53
     total cpu time spent up to now is       22.4 secs

     Computing kpt #:    54
     total cpu time spent up to now is       22.9 secs

     Computing kpt #:    55
     total cpu time spent up to now is       23.2 secs

     Computing kpt #:    56
     total cpu time spent up to now is       23.6 secs

     Computing kpt #:    57
     total cpu time spent up to now is       23.9 secs

     Computing kpt #:    58
     total cpu time spent up to now is       24.4 secs

     Computing kpt #:    59
     total cpu time spent up to now is       24.7 secs

     Computing kpt #:    60
     total cpu time spent up to now is       25.1 secs

     Computing kpt #:    61
     total cpu time spent up to now is       25.5 secs

     Computing kpt #:    62
     total cpu time spent up to now is       25.9 secs

     Computing kpt #:    63
     total cpu time spent up to now is       26.3 secs

     Computing kpt #:    64
     total cpu time spent up to now is       26.7 secs

     Computing kpt #:    65
     total cpu time spent up to now is       27.2 secs

     Computing kpt #:    66
     total cpu time spent up to now is       27.6 secs

     Computing kpt #:    67
     total cpu time spent up to now is       27.9 secs

     Computing kpt #:    68
     total cpu time spent up to now is       28.2 secs

     Computing kpt #:    69
     total cpu time spent up to now is       28.6 secs

     Computing kpt #:    70
     total cpu time spent up to now is       29.0 secs

     Computing kpt #:    71
     total cpu time spent up to now is       29.5 secs

     Computing kpt #:    72
     total cpu time spent up to now is       29.9 secs

     Computing kpt #:    73
     total cpu time spent up to now is       30.3 secs

     Computing kpt #:    74
     total cpu time spent up to now is       30.8 secs

     Computing kpt #:    75
     total cpu time spent up to now is       31.3 secs

     Computing kpt #:    76
     total cpu time spent up to now is       31.5 secs

     Computing kpt #:    77
     total cpu time spent up to now is       31.8 secs

     Computing kpt #:    78
     total cpu time spent up to now is       32.2 secs

     Computing kpt #:    79
     total cpu time spent up to now is       32.5 secs

     Computing kpt #:    80
     total cpu time spent up to now is       32.9 secs

     Computing kpt #:    81
     total cpu time spent up to now is       33.6 secs

     Computing kpt #:    82
     total cpu time spent up to now is       34.1 secs

     Computing kpt #:    83
     total cpu time spent up to now is       34.4 secs

     Computing kpt #:    84
     total cpu time spent up to now is       34.8 secs

     Computing kpt #:    85
     total cpu time spent up to now is       35.2 secs

     Computing kpt #:    86
     total cpu time spent up to now is       35.7 secs

     ethr =  6.25E-13,  avg # of iterations = 42.6

     total cpu time spent up to now is       35.7 secs

     End of band structure calculation

 ------ SPIN UP ------------


          k = 0.0000 0.0000 0.0000 (  3053 PWs)   bands (ev):

   -20.0171 -19.9135  -8.4642  -7.6998  -3.5677  -3.5660  -3.5565  -3.5549
     2.8920   3.2936   4.0148   5.2274

     occupation numbers 
     1.0000   1.0000   1.0000   1.0000   1.0000   1.0000   1.0000   1.0000
     0.0000   0.0000   0.0000   0.0000

          k = 0.0000 0.0962 0.0000 (  3052 PWs)   bands (ev):

   -19.8530 -19.7505  -8.2667  -7.5070  -4.2153  -4.2005  -3.9030  -3.8910
     3.1125   3.5168   4.2402   5.4513

     occupation numbers 
     1.0000   1.0000   1.0000   1.0000   1.0000   1.0000   1.0000   1.0000
     0.0000   0.0000   0.0000   0.0000

          k = 0.0000 0.1925 0.0000 (  3050 PWs)   bands (ev):

   -19.3626 -19.2633  -7.6791  -6.9340  -5.8469  -5.8230  -4.6921  -4.6784
     3.7737   4.1854   4.9163   6.1218

     occupation numbers 
     1.0000   1.0000   1.0000   1.0000   1.0000   1.0000   1.0000   1.0000
     0.0000   0.0000   0.0000   0.0000

          k = 0.0000 0.2887 0.0000 (  3048 PWs)   bands (ev):

   -18.5518 -18.4576  -7.9392  -7.9044  -6.7196  -6.0011  -5.5684  -5.5530
     4.8714   5.2886   6.0385   6.5067

     occupation numbers 
     1.0000   1.0000   1.0000   1.0000   1.0000   1.0000   1.0000   1.0000
     0.0000   0.0000   0.0000   0.0000

          k = 0.0000 0.3849 0.0000 (  3042 PWs)   bands (ev):

   -17.4329 -17.3455 -10.1378 -10.0919  -6.2989  -6.2823  -5.4364  -4.7606
     4.1623   4.6437   6.3836   6.8609

     occupation numbers 
     1.0000   1.0000   1.0000   1.0000   1.0000   1.0000   1.0000   1.0000
     0.0000   0.0000   0.0000   0.0000

          k = 0.0000 0.4811 0.0000 (  3054 PWs)   bands (ev):

   -16.0375 -15.9578 -12.2347 -12.1782  -6.7699  -6.7529  -3.9876  -3.3796
     1.9752   2.5826   6.8896   7.0316

     occupation numbers 
     1.0000   1.0000   1.0000   1.0000   1.0000   1.0000   1.0000   1.0000
     0.0000   0.0000   0.0000   0.0000

          k = 0.0000-0.5774 0.0000 (  3052 PWs)   bands (ev):

   -14.7767 -14.7014 -13.7371 -13.6755  -6.9317  -6.9145  -3.1153  -2.5729
     0.8415   1.5335   6.8129   6.9517

     occupation numbers 
     1.0000   1.0000   1.0000   1.0000   1.0000   1.0000   1.0000   1.0000
     0.0000   0.0000   0.0000   0.0000

          k = 0.0833 0.1443 0.0000 (  3051 PWs)   bands (ev):

   -19.5258 -19.4254  -7.8740  -7.1240  -5.2447  -5.2245  -4.5782  -4.5633
     3.5537   3.9629   4.6911   5.8990

     occupation numbers 
     1.0000   1.0000   1.0000   1.0000   1.0000   1.0000   1.0000   1.0000
     0.0000   0.0000   0.0000   0.0000

          k = 0.0833 0.2406 0.0000 (  3045 PWs)   bands (ev):

   -18.8752 -18.7790  -7.0995  -6.9490  -6.9201  -6.3697  -5.5721  -5.5539
     4.4346   4.8522   5.5925   6.7910

     occupation numbers 
     1.0000   1.0000   1.0000   1.0000   1.0000   1.0000   1.0000   1.0000
     0.0000   0.0000   0.0000   0.0000

          k = 0.0833 0.3368 0.0000 (  3033 PWs)   bands (ev):

   -17.9102 -17.8199  -9.0170  -8.9772  -6.4550  -6.4347  -5.9718  -5.2762
     5.2131   5.5994   5.7492   6.2148

     occupation numbers 
     1.0000   1.0000   1.0000   1.0000   1.0000   1.0000   1.0000   1.0000
     0.0000   0.0000   0.0000   0.0000

          k = 0.0833 0.4330 0.0000 (  3041 PWs)   bands (ev):

   -16.6499 -16.5669 -11.1361 -11.0853  -7.0874  -7.0660  -4.5727  -3.9306
     2.9583   3.4802   7.4269   7.7799

     occupation numbers 
     1.0000   1.0000   1.0000   1.0000   1.0000   1.0000   1.0000   1.0000
     0.0000   0.0000   0.0000   0.0000

          k = 0.0833 0.5292 0.0000 (  3043 PWs)   bands (ev):

   -15.1716 -15.0961 -13.0744 -13.0144  -7.4147  -7.3927  -3.2316  -2.6682
     1.1423   1.7790   7.5389   7.6893

     occupation numbers 
     1.0000   1.0000   1.0000   1.0000   1.0000   1.0000   1.0000   1.0000
     0.0000   0.0000   0.0000   0.0000

          k = 0.1667 0.2887 0.0000 (  3039 PWs)   bands (ev):

   -18.0704 -17.9791  -8.2756  -8.2406  -6.9301  -6.9044  -6.1529  -5.4508
     5.5328   5.6831   5.9588   6.0349

     occupation numbers 
     1.0000   1.0000   1.0000   1.0000   1.0000   1.0000   1.0000   1.0000
     0.0000   0.0000   0.0000   0.0000

          k = 0.1667 0.3849 0.0000 (  3045 PWs)   bands (ev):

   -16.9624 -16.8778  -9.9997  -9.9554  -7.9829  -7.9530  -4.8848  -4.2255
     3.7099   4.1335   7.0556   7.4920

     occupation numbers 
     1.0000   1.0000   1.0000   1.0000   1.0000   1.0000   1.0000   1.0000
     0.0000   0.0000   0.0000   0.0000

          k = 0.1667 0.4811 0.0000 (  3041 PWs)   bands (ev):

   -15.5870 -15.5102 -11.9074 -11.8530  -8.5571  -8.5254  -3.4338  -2.8383
     1.7609   2.2784   8.9488   9.4052

     occupation numbers 
     1.0000   1.0000   1.0000   1.0000   1.0000   1.0000   1.0000   1.0000
     0.0000   0.0000   0.0000   0.0000

          k = 0.1667 0.5774 0.0000 (  3008 PWs)   bands (ev):

   -14.3550 -14.2830 -13.3390 -13.2788  -8.7413  -8.7092  -2.5151  -1.9817
     0.6613   1.2538   9.2964   9.5091

     occupation numbers 
     1.0000   1.0000   1.0000   1.0000   1.0000   1.0000   1.0000   1.0000
     0.0000   0.0000   0.0000   0.0000

          k = 0.2500 0.4330 0.0000 (  3033 PWs)   bands (ev):

   -15.7345 -15.6571 -11.0337 -10.9839  -9.4624  -9.4246  -3.5236  -2.9153
     2.0904   2.5381   8.7617   9.1619

     occupation numbers 
     1.0000   1.0000   1.0000   1.0000   1.0000   1.0000   1.0000   1.0000
     0.0000   0.0000   0.0000   0.0000

          k = 0.2500 0.5292 0.0000 (  3013 PWs)   bands (ev):

   -14.3133 -14.2434 -12.4532 -12.3956 -10.1683 -10.1271  -2.1124  -1.5693
     0.5516   1.0508   9.7508  10.7434

     occupation numbers 
     1.0000   1.0000   1.0000   1.0000   1.0000   1.0000   1.0000   1.0000
     0.0000   0.0000   0.0000   0.0000

          k = 0.3333 0.5774 0.0000 (  3027 PWs)   bands (ev):

   -13.0973 -13.0967 -13.0344 -13.0339 -11.0612 -11.0166  -0.7438  -0.7431
    -0.2396  -0.2389   9.3099  10.9899

     occupation numbers 
     1.0000   1.0000   1.0000   1.0000   1.0000   1.0000   1.0000   1.0000
     0.0000   0.0000   0.0000   0.0000

          k =-0.0833 0.0481 0.0000 (  3052 PWs)   bands (ev):

   -19.8530 -19.7505  -8.2667  -7.5070  -4.2143  -4.1994  -3.9041  -3.8921
     3.1125   3.5168   4.2402   5.4513

     occupation numbers 
     1.0000   1.0000   1.0000   1.0000   1.0000   1.0000   1.0000   1.0000
     0.0000   0.0000   0.0000   0.0000

          k =-0.1667 0.0962 0.0000 (  3050 PWs)   bands (ev):

   -19.3626 -19.2633  -7.6791  -6.9340  -5.8461  -5.8221  -4.6930  -4.6793
     3.7737   4.1854   4.9163   6.1218

     occupation numbers 
     1.0000   1.0000   1.0000   1.0000   1.0000   1.0000   1.0000   1.0000
     0.0000   0.0000   0.0000   0.0000

          k =-0.2500 0.1443 0.0000 (  3048 PWs)   bands (ev):

   -18.5518 -18.4576  -7.9386  -7.9038  -6.7196  -6.0011  -5.5691  -5.5537
     4.8714   5.2886   6.0385   6.5069

     occupation numbers 
     1.0000   1.0000   1.0000   1.0000   1.0000   1.0000   1.0000   1.0000
     0.0000   0.0000   0.0000   0.0000

          k =-0.3333 0.1925 0.0000 (  3042 PWs)   bands (ev):

   -17.4329 -17.3454 -10.1373 -10.0914  -6.2995  -6.2830  -5.4365  -4.7607
     4.1627   4.6442   6.3836   6.8609

     occupation numbers 
     1.0000   1.0000   1.0000   1.0000   1.0000   1.0000   1.0000   1.0000
     0.0000   0.0000   0.0000   0.0000

          k =-0.4167 0.2406 0.0000 (  3054 PWs)   bands (ev):

   -16.0375 -15.9578 -12.2343 -12.1778  -6.7705  -6.7535  -3.9879  -3.3799
     1.9758   2.5833   6.8893   7.0314

     occupation numbers 
     1.0000   1.0000   1.0000   1.0000   1.0000   1.0000   1.0000   1.0000
     0.0000   0.0000   0.0000   0.0000

          k = 0.5000-0.2887 0.0000 (  3052 PWs)   bands (ev):

   -14.7770 -14.7017 -13.7364 -13.6748  -6.9323  -6.9150  -3.1159  -2.5735
     0.8424   1.5345   6.8126   6.9515

     occupation numbers 
     1.0000   1.0000   1.0000   1.0000   1.0000   1.0000   1.0000   1.0000
     0.0000   0.0000   0.0000   0.0000

          k = 0.1667-0.0000 0.0000 (  3051 PWs)   bands (ev):

   -19.5258 -19.4254  -7.8740  -7.1240  -5.2437  -5.2235  -4.5792  -4.5644
     3.5537   3.9629   4.6911   5.8990

     occupation numbers 
     1.0000   1.0000   1.0000   1.0000   1.0000   1.0000   1.0000   1.0000
     0.0000   0.0000   0.0000   0.0000

          k =-0.1667 0.1925 0.0000 (  3045 PWs)   bands (ev):

   -18.8752 -18.7789  -7.0995  -6.9486  -6.9196  -6.3698  -5.5726  -5.5544
     4.4346   4.8522   5.5925   6.7910

     occupation numbers 
     1.0000   1.0000   1.0000   1.0000   1.0000   1.0000   1.0000   1.0000
     0.0000   0.0000   0.0000   0.0000

          k = 0.2500 0.0481 0.0000 (  3045 PWs)   bands (ev):

   -18.8752 -18.7789  -7.0995  -6.9482  -6.9192  -6.3698  -5.5731  -5.5549
     4.4346   4.8522   5.5925   6.7910

     occupation numbers 
     1.0000   1.0000   1.0000   1.0000   1.0000   1.0000   1.0000   1.0000
     0.0000   0.0000   0.0000   0.0000

          k =-0.2500 0.2406 0.0000 (  3033 PWs)   bands (ev):

   -17.9102 -17.8199  -9.0166  -8.9768  -6.4556  -6.4352  -5.9718  -5.2763
     5.2133   5.5996   5.7492   6.2149

     occupation numbers 
     1.0000   1.0000   1.0000   1.0000   1.0000   1.0000   1.0000   1.0000
     0.0000   0.0000   0.0000   0.0000

          k = 0.3333 0.0962 0.0000 (  3033 PWs)   bands (ev):

   -17.9102 -17.8199  -9.0164  -8.9766  -6.4558  -6.4354  -5.9719  -5.2763
     5.2135   5.5998   5.7492   6.2149

     occupation numbers 
     1.0000   1.0000   1.0000   1.0000   1.0000   1.0000   1.0000   1.0000
     0.0000   0.0000   0.0000   0.0000

          k =-0.3333 0.2887 0.0000 (  3041 PWs)   bands (ev):

   -16.6499 -16.5669 -11.1357 -11.0849  -7.0880  -7.0665  -4.5729  -3.9308
     2.9588   3.4807   7.4269   7.7797

     occupation numbers 
     1.0000   1.0000   1.0000   1.0000   1.0000   1.0000   1.0000   1.0000
     0.0000   0.0000   0.0000   0.0000

          k = 0.4167 0.1443 0.0000 (  3041 PWs)   bands (ev):

   -16.6499 -16.5669 -11.1357 -11.0849  -7.0881  -7.0666  -4.5729  -3.9308
     2.9589   3.4809   7.4268   7.7797

     occupation numbers 
     1.0000   1.0000   1.0000   1.0000   1.0000   1.0000   1.0000   1.0000
     0.0000   0.0000   0.0000   0.0000

          k =-0.4167 0.3368 0.0000 (  3043 PWs)   bands (ev):

   -15.1717 -15.0962 -13.0740 -13.0139  -7.4152  -7.3932  -3.2320  -2.6687
     1.1431   1.7798   7.5386   7.6890

     occupation numbers 
     1.0000   1.0000   1.0000   1.0000   1.0000   1.0000   1.0000   1.0000
     0.0000   0.0000   0.0000   0.0000

          k = 0.5000 0.1925 0.0000 (  3043 PWs)   bands (ev):

   -15.1717 -15.0962 -13.0740 -13.0139  -7.4152  -7.3932  -3.2321  -2.6687
     1.1432   1.7799   7.5386   7.6890

     occupation numbers 
     1.0000   1.0000   1.0000   1.0000   1.0000   1.0000   1.0000   1.0000
     0.0000   0.0000   0.0000   0.0000

          k = 0.3333-0.0000 0.0000 (  3039 PWs)   bands (ev):

   -18.0704 -17.9791  -8.2749  -8.2398  -6.9310  -6.9053  -6.1529  -5.4509
     5.5328   5.6835   5.9588   6.0353

     occupation numbers 
     1.0000   1.0000   1.0000   1.0000   1.0000   1.0000   1.0000   1.0000
     0.0000   0.0000   0.0000   0.0000

          k =-0.2500 0.3368 0.0000 (  3045 PWs)   bands (ev):

   -16.9624 -16.8778  -9.9994  -9.9551  -7.9833  -7.9534  -4.8849  -4.2255
     3.7101   4.1337   7.0556   7.4920

     occupation numbers 
     1.0000   1.0000   1.0000   1.0000   1.0000   1.0000   1.0000   1.0000
     0.0000   0.0000   0.0000   0.0000

          k = 0.4167 0.0481 0.0000 (  3045 PWs)   bands (ev):

   -16.9624 -16.8778  -9.9991  -9.9548  -7.9837  -7.9537  -4.8850  -4.2257
     3.7104   4.1340   7.0556   7.4920

     occupation numbers 
     1.0000   1.0000   1.0000   1.0000   1.0000   1.0000   1.0000   1.0000
     0.0000   0.0000   0.0000   0.0000

          k =-0.3333 0.3849 0.0000 (  3041 PWs)   bands (ev):

   -15.5870 -15.5102 -11.9070 -11.8527  -8.5575  -8.5259  -3.4340  -2.8385
     1.7613   2.2789   8.9488   9.4052

     occupation numbers 
     1.0000   1.0000   1.0000   1.0000   1.0000   1.0000   1.0000   1.0000
     0.0000   0.0000   0.0000   0.0000

          k = 0.5000 0.0962 0.0000 (  3041 PWs)   bands (ev):

   -15.5870 -15.5102 -11.9069 -11.8526  -8.5576  -8.5260  -3.4341  -2.8387
     1.7615   2.2791   8.9487   9.4051

     occupation numbers 
     1.0000   1.0000   1.0000   1.0000   1.0000   1.0000   1.0000   1.0000
     0.0000   0.0000   0.0000   0.0000

          k =-0.4167 0.4330 0.0000 (  3008 PWs)   bands (ev):

   -14.3553 -14.2833 -13.3383 -13.2781  -8.7418  -8.7096  -2.5157  -1.9823
     0.6621   1.2547   9.2961   9.5088

     occupation numbers 
     1.0000   1.0000   1.0000   1.0000   1.0000   1.0000   1.0000   1.0000
     0.0000   0.0000   0.0000   0.0000

          k = 0.5000-0.0000 0.0000 (  3033 PWs)   bands (ev):

   -15.7345 -15.6571 -11.0332 -10.9833  -9.4630  -9.4252  -3.5238  -2.9155
     2.0909   2.5386   8.7617   9.1618

     occupation numbers 
     1.0000   1.0000   1.0000   1.0000   1.0000   1.0000   1.0000   1.0000
     0.0000   0.0000   0.0000   0.0000

          k =-0.3333 0.4811 0.0000 (  3013 PWs)   bands (ev):

   -14.3134 -14.2435 -12.4528 -12.3952 -10.1686 -10.1274  -2.1127  -1.5696
     0.5520   1.0512   9.7507  10.7434

     occupation numbers 
     1.0000   1.0000   1.0000   1.0000   1.0000   1.0000   1.0000   1.0000
     0.0000   0.0000   0.0000   0.0000

          k = 0.5833 0.0481 0.0000 (  3013 PWs)   bands (ev):

   -14.3134 -14.2436 -12.4526 -12.3950 -10.1688 -10.1276  -2.1129  -1.5698
     0.5523   1.0515   9.7506  10.7433

     occupation numbers 
     1.0000   1.0000   1.0000   1.0000   1.0000   1.0000   1.0000   1.0000
     0.0000   0.0000   0.0000   0.0000

 ------ SPIN DOWN ----------


          k = 0.0000 0.0000 0.0000 (  3053 PWs)   bands (ev):

   -20.0171 -19.9135  -8.4642  -7.6998  -3.5677  -3.5660  -3.5565  -3.5549
     2.8920   3.2936   4.0148   5.2274

     occupation numbers 
     1.0000   1.0000   1.0000   1.0000   1.0000   1.0000   1.0000   1.0000
     0.0000   0.0000   0.0000   0.0000

          k = 0.0000 0.0962 0.0000 (  3052 PWs)   bands (ev):

   -19.8530 -19.7505  -8.2667  -7.5070  -4.2154  -4.2005  -3.9030  -3.8910
     3.1125   3.5168   4.2402   5.4513

     occupation numbers 
     1.0000   1.0000   1.0000   1.0000   1.0000   1.0000   1.0000   1.0000
     0.0000   0.0000   0.0000   0.0000

          k = 0.0000 0.1925 0.0000 (  3050 PWs)   bands (ev):

   -19.3626 -19.2633  -7.6791  -6.9340  -5.8469  -5.8230  -4.6921  -4.6784
     3.7737   4.1854   4.9163   6.1218

     occupation numbers 
     1.0000   1.0000   1.0000   1.0000   1.0000   1.0000   1.0000   1.0000
     0.0000   0.0000   0.0000   0.0000

          k = 0.0000 0.2887 0.0000 (  3048 PWs)   bands (ev):

   -18.5518 -18.4576  -7.9392  -7.9044  -6.7195  -6.0011  -5.5684  -5.5530
     4.8714   5.2886   6.0385   6.5067

     occupation numbers 
     1.0000   1.0000   1.0000   1.0000   1.0000   1.0000   1.0000   1.0000
     0.0000   0.0000   0.0000   0.0000

          k = 0.0000 0.3849 0.0000 (  3042 PWs)   bands (ev):

   -17.4329 -17.3455 -10.1378 -10.0919  -6.2989  -6.2823  -5.4364  -4.7606
     4.1623   4.6437   6.3836   6.8609

     occupation numbers 
     1.0000   1.0000   1.0000   1.0000   1.0000   1.0000   1.0000   1.0000
     0.0000   0.0000   0.0000   0.0000

          k = 0.0000 0.4811 0.0000 (  3054 PWs)   bands (ev):

   -16.0375 -15.9578 -12.2347 -12.1782  -6.7699  -6.7529  -3.9876  -3.3796
     1.9752   2.5826   6.8896   7.0316

     occupation numbers 
     1.0000   1.0000   1.0000   1.0000   1.0000   1.0000   1.0000   1.0000
     0.0000   0.0000   0.0000   0.0000

          k = 0.0000-0.5774 0.0000 (  3052 PWs)   bands (ev):

   -14.7767 -14.7014 -13.7371 -13.6755  -6.9317  -6.9145  -3.1153  -2.5729
     0.8415   1.5335   6.8129   6.9517

     occupation numbers 
     1.0000   1.0000   1.0000   1.0000   1.0000   1.0000   1.0000   1.0000
     0.0000   0.0000   0.0000   0.0000

          k = 0.0833 0.1443 0.0000 (  3051 PWs)   bands (ev):

   -19.5258 -19.4254  -7.8740  -7.1240  -5.2447  -5.2245  -4.5782  -4.5633
     3.5537   3.9629   4.6911   5.8990

     occupation numbers 
     1.0000   1.0000   1.0000   1.0000   1.0000   1.0000   1.0000   1.0000
     0.0000   0.0000   0.0000   0.0000

          k = 0.0833 0.2406 0.0000 (  3045 PWs)   bands (ev):

   -18.8752 -18.7790  -7.0995  -6.9490  -6.9201  -6.3697  -5.5721  -5.5539
     4.4346   4.8522   5.5925   6.7910

     occupation numbers 
     1.0000   1.0000   1.0000   1.0000   1.0000   1.0000   1.0000   1.0000
     0.0000   0.0000   0.0000   0.0000

          k = 0.0833 0.3368 0.0000 (  3033 PWs)   bands (ev):

   -17.9102 -17.8199  -9.0170  -8.9772  -6.4550  -6.4347  -5.9718  -5.2762
     5.2131   5.5994   5.7492   6.2148

     occupation numbers 
     1.0000   1.0000   1.0000   1.0000   1.0000   1.0000   1.0000   1.0000
     0.0000   0.0000   0.0000   0.0000

          k = 0.0833 0.4330 0.0000 (  3041 PWs)   bands (ev):

   -16.6499 -16.5669 -11.1361 -11.0853  -7.0875  -7.0660  -4.5727  -3.9306
     2.9583   3.4802   7.4269   7.7799

     occupation numbers 
     1.0000   1.0000   1.0000   1.0000   1.0000   1.0000   1.0000   1.0000
     0.0000   0.0000   0.0000   0.0000

          k = 0.0833 0.5292 0.0000 (  3043 PWs)   bands (ev):

   -15.1716 -15.0961 -13.0744 -13.0144  -7.4147  -7.3927  -3.2316  -2.6682
     1.1423   1.7790   7.5389   7.6893

     occupation numbers 
     1.0000   1.0000   1.0000   1.0000   1.0000   1.0000   1.0000   1.0000
     0.0000   0.0000   0.0000   0.0000

          k = 0.1667 0.2887 0.0000 (  3039 PWs)   bands (ev):

   -18.0704 -17.9791  -8.2756  -8.2406  -6.9301  -6.9044  -6.1529  -5.4508
     5.5328   5.6831   5.9588   6.0349

     occupation numbers 
     1.0000   1.0000   1.0000   1.0000   1.0000   1.0000   1.0000   1.0000
     0.0000   0.0000   0.0000   0.0000

          k = 0.1667 0.3849 0.0000 (  3045 PWs)   bands (ev):

   -16.9624 -16.8778  -9.9997  -9.9554  -7.9829  -7.9530  -4.8848  -4.2255
     3.7099   4.1335   7.0556   7.4920

     occupation numbers 
     1.0000   1.0000   1.0000   1.0000   1.0000   1.0000   1.0000   1.0000
     0.0000   0.0000   0.0000   0.0000

          k = 0.1667 0.4811 0.0000 (  3041 PWs)   bands (ev):

   -15.5870 -15.5102 -11.9074 -11.8530  -8.5571  -8.5254  -3.4338  -2.8383
     1.7609   2.2784   8.9488   9.4052

     occupation numbers 
     1.0000   1.0000   1.0000   1.0000   1.0000   1.0000   1.0000   1.0000
     0.0000   0.0000   0.0000   0.0000

          k = 0.1667 0.5774 0.0000 (  3008 PWs)   bands (ev):

   -14.3550 -14.2830 -13.3390 -13.2788  -8.7413  -8.7092  -2.5151  -1.9817
     0.6613   1.2538   9.2964   9.5091

     occupation numbers 
     1.0000   1.0000   1.0000   1.0000   1.0000   1.0000   1.0000   1.0000
     0.0000   0.0000   0.0000   0.0000

          k = 0.2500 0.4330 0.0000 (  3033 PWs)   bands (ev):

   -15.7345 -15.6571 -11.0337 -10.9839  -9.4624  -9.4246  -3.5235  -2.9153
     2.0904   2.5381   8.7617   9.1619

     occupation numbers 
     1.0000   1.0000   1.0000   1.0000   1.0000   1.0000   1.0000   1.0000
     0.0000   0.0000   0.0000   0.0000

          k = 0.2500 0.5292 0.0000 (  3013 PWs)   bands (ev):

   -14.3133 -14.2435 -12.4532 -12.3956 -10.1683 -10.1271  -2.1124  -1.5693
     0.5516   1.0508   9.7508  10.7434

     occupation numbers 
     1.0000   1.0000   1.0000   1.0000   1.0000   1.0000   1.0000   1.0000
     0.0000   0.0000   0.0000   0.0000

          k = 0.3333 0.5774 0.0000 (  3027 PWs)   bands (ev):

   -13.0973 -13.0967 -13.0344 -13.0339 -11.0612 -11.0166  -0.7438  -0.7431
    -0.2396  -0.2389   9.3099  10.9899

     occupation numbers 
     1.0000   1.0000   1.0000   1.0000   1.0000   1.0000   1.0000   1.0000
     0.0000   0.0000   0.0000   0.0000

          k =-0.0833 0.0481 0.0000 (  3052 PWs)   bands (ev):

   -19.8530 -19.7505  -8.2667  -7.5070  -4.2143  -4.1994  -3.9041  -3.8921
     3.1125   3.5168   4.2402   5.4513

     occupation numbers 
     1.0000   1.0000   1.0000   1.0000   1.0000   1.0000   1.0000   1.0000
     0.0000   0.0000   0.0000   0.0000

          k =-0.1667 0.0962 0.0000 (  3050 PWs)   bands (ev):

   -19.3626 -19.2633  -7.6791  -6.9340  -5.8461  -5.8221  -4.6930  -4.6793
     3.7737   4.1854   4.9163   6.1218

     occupation numbers 
     1.0000   1.0000   1.0000   1.0000   1.0000   1.0000   1.0000   1.0000
     0.0000   0.0000   0.0000   0.0000

          k =-0.2500 0.1443 0.0000 (  3048 PWs)   bands (ev):

   -18.5518 -18.4576  -7.9386  -7.9038  -6.7196  -6.0011  -5.5691  -5.5537
     4.8714   5.2886   6.0385   6.5069

     occupation numbers 
     1.0000   1.0000   1.0000   1.0000   1.0000   1.0000   1.0000   1.0000
     0.0000   0.0000   0.0000   0.0000

          k =-0.3333 0.1925 0.0000 (  3042 PWs)   bands (ev):

   -17.4329 -17.3454 -10.1373 -10.0914  -6.2995  -6.2830  -5.4365  -4.7607
     4.1627   4.6442   6.3836   6.8609

     occupation numbers 
     1.0000   1.0000   1.0000   1.0000   1.0000   1.0000   1.0000   1.0000
     0.0000   0.0000   0.0000   0.0000

          k =-0.4167 0.2406 0.0000 (  3054 PWs)   bands (ev):

   -16.0375 -15.9578 -12.2343 -12.1778  -6.7705  -6.7535  -3.9879  -3.3799
     1.9758   2.5833   6.8893   7.0314

     occupation numbers 
     1.0000   1.0000   1.0000   1.0000   1.0000   1.0000   1.0000   1.0000
     0.0000   0.0000   0.0000   0.0000

          k = 0.5000-0.2887 0.0000 (  3052 PWs)   bands (ev):

   -14.7770 -14.7017 -13.7364 -13.6748  -6.9323  -6.9150  -3.1159  -2.5735
     0.8424   1.5345   6.8126   6.9515

     occupation numbers 
     1.0000   1.0000   1.0000   1.0000   1.0000   1.0000   1.0000   1.0000
     0.0000   0.0000   0.0000   0.0000

          k = 0.1667-0.0000 0.0000 (  3051 PWs)   bands (ev):

   -19.5258 -19.4254  -7.8740  -7.1240  -5.2437  -5.2235  -4.5792  -4.5644
     3.5537   3.9629   4.6911   5.8990

     occupation numbers 
     1.0000   1.0000   1.0000   1.0000   1.0000   1.0000   1.0000   1.0000
     0.0000   0.0000   0.0000   0.0000

          k =-0.1667 0.1925 0.0000 (  3045 PWs)   bands (ev):

   -18.8752 -18.7789  -7.0995  -6.9486  -6.9196  -6.3698  -5.5726  -5.5544
     4.4346   4.8522   5.5925   6.7910

     occupation numbers 
     1.0000   1.0000   1.0000   1.0000   1.0000   1.0000   1.0000   1.0000
     0.0000   0.0000   0.0000   0.0000

          k = 0.2500 0.0481 0.0000 (  3045 PWs)   bands (ev):

   -18.8752 -18.7789  -7.0995  -6.9482  -6.9192  -6.3698  -5.5731  -5.5549
     4.4346   4.8522   5.5925   6.7910

     occupation numbers 
     1.0000   1.0000   1.0000   1.0000   1.0000   1.0000   1.0000   1.0000
     0.0000   0.0000   0.0000   0.0000

          k =-0.2500 0.2406 0.0000 (  3033 PWs)   bands (ev):

   -17.9102 -17.8199  -9.0166  -8.9768  -6.4556  -6.4352  -5.9718  -5.2763
     5.2133   5.5996   5.7492   6.2149

     occupation numbers 
     1.0000   1.0000   1.0000   1.0000   1.0000   1.0000   1.0000   1.0000
     0.0000   0.0000   0.0000   0.0000

          k = 0.3333 0.0962 0.0000 (  3033 PWs)   bands (ev):

   -17.9102 -17.8199  -9.0164  -8.9766  -6.4558  -6.4354  -5.9719  -5.2763
     5.2135   5.5998   5.7492   6.2149

     occupation numbers 
     1.0000   1.0000   1.0000   1.0000   1.0000   1.0000   1.0000   1.0000
     0.0000   0.0000   0.0000   0.0000

          k =-0.3333 0.2887 0.0000 (  3041 PWs)   bands (ev):

   -16.6499 -16.5669 -11.1357 -11.0849  -7.0880  -7.0665  -4.5728  -3.9308
     2.9588   3.4807   7.4269   7.7797

     occupation numbers 
     1.0000   1.0000   1.0000   1.0000   1.0000   1.0000   1.0000   1.0000
     0.0000   0.0000   0.0000   0.0000

          k = 0.4167 0.1443 0.0000 (  3041 PWs)   bands (ev):

   -16.6499 -16.5669 -11.1357 -11.0849  -7.0881  -7.0666  -4.5729  -3.9308
     2.9589   3.4809   7.4268   7.7797

     occupation numbers 
     1.0000   1.0000   1.0000   1.0000   1.0000   1.0000   1.0000   1.0000
     0.0000   0.0000   0.0000   0.0000

          k =-0.4167 0.3368 0.0000 (  3043 PWs)   bands (ev):

   -15.1717 -15.0962 -13.0740 -13.0139  -7.4152  -7.3932  -3.2320  -2.6687
     1.1431   1.7798   7.5386   7.6890

     occupation numbers 
     1.0000   1.0000   1.0000   1.0000   1.0000   1.0000   1.0000   1.0000
     0.0000   0.0000   0.0000   0.0000

          k = 0.5000 0.1925 0.0000 (  3043 PWs)   bands (ev):

   -15.1717 -15.0962 -13.0740 -13.0139  -7.4152  -7.3932  -3.2321  -2.6687
     1.1432   1.7799   7.5386   7.6890

     occupation numbers 
     1.0000   1.0000   1.0000   1.0000   1.0000   1.0000   1.0000   1.0000
     0.0000   0.0000   0.0000   0.0000

          k = 0.3333-0.0000 0.0000 (  3039 PWs)   bands (ev):

   -18.0704 -17.9791  -8.2749  -8.2398  -6.9310  -6.9053  -6.1529  -5.4509
     5.5328   5.6835   5.9588   6.0353

     occupation numbers 
     1.0000   1.0000   1.0000   1.0000   1.0000   1.0000   1.0000   1.0000
     0.0000   0.0000   0.0000   0.0000

          k =-0.2500 0.3368 0.0000 (  3045 PWs)   bands (ev):

   -16.9624 -16.8778  -9.9994  -9.9551  -7.9833  -7.9534  -4.8849  -4.2255
     3.7101   4.1337   7.0556   7.4920

     occupation numbers 
     1.0000   1.0000   1.0000   1.0000   1.0000   1.0000   1.0000   1.0000
     0.0000   0.0000   0.0000   0.0000

          k = 0.4167 0.0481 0.0000 (  3045 PWs)   bands (ev):

   -16.9624 -16.8778  -9.9991  -9.9548  -7.9837  -7.9537  -4.8850  -4.2257
     3.7104   4.1340   7.0556   7.4920

     occupation numbers 
     1.0000   1.0000   1.0000   1.0000   1.0000   1.0000   1.0000   1.0000
     0.0000   0.0000   0.0000   0.0000

          k =-0.3333 0.3849 0.0000 (  3041 PWs)   bands (ev):

   -15.5870 -15.5102 -11.9070 -11.8527  -8.5575  -8.5259  -3.4340  -2.8385
     1.7613   2.2789   8.9488   9.4052

     occupation numbers 
     1.0000   1.0000   1.0000   1.0000   1.0000   1.0000   1.0000   1.0000
     0.0000   0.0000   0.0000   0.0000

          k = 0.5000 0.0962 0.0000 (  3041 PWs)   bands (ev):

   -15.5870 -15.5102 -11.9069 -11.8526  -8.5576  -8.5260  -3.4341  -2.8387
     1.7615   2.2791   8.9487   9.4051

     occupation numbers 
     1.0000   1.0000   1.0000   1.0000   1.0000   1.0000   1.0000   1.0000
     0.0000   0.0000   0.0000   0.0000

          k =-0.4167 0.4330 0.0000 (  3008 PWs)   bands (ev):

   -14.3553 -14.2833 -13.3383 -13.2781  -8.7418  -8.7096  -2.5157  -1.9823
     0.6621   1.2547   9.2961   9.5088

     occupation numbers 
     1.0000   1.0000   1.0000   1.0000   1.0000   1.0000   1.0000   1.0000
     0.0000   0.0000   0.0000   0.0000

          k = 0.5000-0.0000 0.0000 (  3033 PWs)   bands (ev):

   -15.7345 -15.6571 -11.0332 -10.9833  -9.4630  -9.4252  -3.5238  -2.9155
     2.0909   2.5386   8.7617   9.1618

     occupation numbers 
     1.0000   1.0000   1.0000   1.0000   1.0000   1.0000   1.0000   1.0000
     0.0000   0.0000   0.0000   0.0000

          k =-0.3333 0.4811 0.0000 (  3013 PWs)   bands (ev):

   -14.3134 -14.2435 -12.4528 -12.3952 -10.1686 -10.1274  -2.1127  -1.5696
     0.5520   1.0512   9.7507  10.7434

     occupation numbers 
     1.0000   1.0000   1.0000   1.0000   1.0000   1.0000   1.0000   1.0000
     0.0000   0.0000   0.0000   0.0000

          k = 0.5833 0.0481 0.0000 (  3013 PWs)   bands (ev):

   -14.3134 -14.2436 -12.4526 -12.3950 -10.1688 -10.1276  -2.1129  -1.5698
     0.5523   1.0515   9.7506  10.7433

     occupation numbers 
     1.0000   1.0000   1.0000   1.0000   1.0000   1.0000   1.0000   1.0000
     0.0000   0.0000   0.0000   0.0000

     the Fermi energy is    -0.6371 ev

     Writing output data file gra.spin.save

     init_run     :      0.88s CPU      0.92s WALL (       1 calls)
     electrons    :     34.61s CPU     34.74s WALL (       1 calls)

     Called by init_run:
     wfcinit      :      0.00s CPU      0.00s WALL (       1 calls)
     potinit      :      0.36s CPU      0.37s WALL (       1 calls)

     Called by electrons:
     c_bands      :     34.61s CPU     34.74s WALL (       1 calls)
     v_of_rho     :      0.32s CPU      0.33s WALL (       1 calls)
     v_h          :      0.01s CPU      0.01s WALL (       1 calls)
     v_xc         :      0.31s CPU      0.32s WALL (       1 calls)
     newd         :      0.18s CPU      0.18s WALL (       1 calls)

     Called by c_bands:
     init_us_2    :      0.06s CPU      0.06s WALL (      86 calls)
     cegterg      :     32.55s CPU     32.68s WALL (     220 calls)

     Called by sum_band:

     Called by *egterg:
     h_psi        :     17.85s CPU     17.96s WALL (    3970 calls)
     s_psi        :      2.57s CPU      2.57s WALL (    3970 calls)
     g_psi        :      0.18s CPU      0.18s WALL (    3664 calls)
     cdiaghg      :      1.27s CPU      1.27s WALL (    3750 calls)
     cegterg:over :      4.78s CPU      4.79s WALL (    3664 calls)
     cegterg:upda :      3.70s CPU      3.71s WALL (    3664 calls)
     cegterg:last :      2.79s CPU      2.79s WALL (     561 calls)

     Called by h_psi:
     h_psi:vloc   :     12.11s CPU     12.17s WALL (    3970 calls)
     h_psi:vnl    :      5.59s CPU      5.64s WALL (    3970 calls)
     add_vuspsi   :      2.60s CPU      2.62s WALL (    3970 calls)

     General routines
     calbec       :      2.98s CPU      3.01s WALL (    3970 calls)
     fft          :      0.13s CPU      0.13s WALL (      22 calls)
     ffts         :      0.00s CPU      0.00s WALL (       2 calls)
     fftw         :      8.82s CPU      8.87s WALL (   42050 calls)
     interpolate  :      0.01s CPU      0.01s WALL (       2 calls)

     Parallel routines
     fft_scatter  :      1.38s CPU      1.38s WALL (   42074 calls)

     PWSCF        :    35.73s CPU        35.92s WALL


   This run was terminated on:  14: 6:42  16Apr2020            

=------------------------------------------------------------------------------=
   JOB DONE.
=------------------------------------------------------------------------------=
