
     Program PWSCF v.5.1 starts on 16Apr2020 at 14: 1:58 

     This program is part of the open-source Quantum ESPRESSO suite
     for quantum simulation of materials; please cite
         "P. Giannozzi et al., J. Phys.:Condens. Matter 21 395502 (2009);
          URL http://www.quantum-espresso.org", 
     in publications or presentations arising from this work. More details at
     http://www.quantum-espresso.org/quote

     Parallel version (MPI), running on     1 processors
     Waiting for input...
     Reading input from standard input

     Current dimensions of program PWSCF are:
     Max number of different atomic species (ntypx) = 10
     Max number of k-points (npk) =  40000
     Max angular momentum in pseudopotentials (lmaxx) =  3

     IMPORTANT: XC functional enforced from input :
     Exchange-correlation      = PBE ( 1  4  3  4 0)
     Any further DFT definition will be discarded
     Please, verify this is what you really want

               file C.pbe-rrkjus.UPF: wavefunction(s)  2S 2P renormalized

     Subspace diagonalization in iterative solution of the eigenvalue problem:
     a serial algorithm will be used


     G-vector sticks info
     --------------------
     sticks:   dense  smooth     PW     G-vecs:    dense   smooth      PW
     Sum         595     241     85                96043    24369    4587

     Generating pointlists ...
     new r_m :   0.2381 (alat units)  1.1104 (a.u.) for type    1

     Title: 
     graphene                                                                   


     bravais-lattice index     =           12
     lattice parameter (alat)  =       4.6627  a.u.
     unit-cell volume          =     711.6007 (a.u.)^3
     number of atoms/cell      =            4
     number of atomic types    =            1
     number of electrons       =        16.00
     number of Kohn-Sham states=           12
     kinetic-energy cutoff     =      40.0000  Ry
     charge density cutoff     =     400.0000  Ry
     convergence threshold     =      1.0E-10
     mixing beta               =       0.3000
     number of iterations used =            8  plain     mixing
     Exchange-correlation      = PBE ( 1  4  3  4 0)

     celldm(1)=   4.662710  celldm(2)=   1.000000  celldm(3)=   8.105698
     celldm(4)=  -0.500000  celldm(5)=   0.000000  celldm(6)=   0.000000

     crystal axes: (cart. coord. in units of alat)
               a(1) = (   1.000000   0.000000   0.000000 )  
               a(2) = (  -0.500000   0.866025   0.000000 )  
               a(3) = (   0.000000   0.000000   8.105698 )  

     reciprocal axes: (cart. coord. in units 2 pi/alat)
               b(1) = (  1.000000  0.577350 -0.000000 )  
               b(2) = (  0.000000  1.154701  0.000000 )  
               b(3) = (  0.000000 -0.000000  0.123370 )  


     PseudoPot. # 1 for C  read from file:
     ../pseudo/C.pbe-rrkjus.UPF
     MD5 check sum: 00fb224312de0c5b6853bd333518df6f
     Pseudo is Ultrasoft, Zval =  4.0
     Generated by new atomic code, or converted to UPF format
     Using radial grid of  627 points,  4 beta functions with: 
                l(1) =   0
                l(2) =   0
                l(3) =   1
                l(4) =   1
     Q(r) pseudized with 0 coefficients 


     atomic species   valence    mass     pseudopotential
        C              4.00    12.01100     C ( 1.00)

     Starting magnetic structure 
     atomic species   magnetization
        C           -0.500

      2 Sym. Ops. (no inversion) found
          (note:  6 additional sym.ops. were found but ignored
           their fractional translations are incommensurate with FFT grid)

                                    s                        frac. trans.

      isym =  1     identity                                     

 cryst.   s( 1) = (     1          0          0      )
                  (     0          1          0      )
                  (     0          0          1      )

 cart.    s( 1) = (  1.0000000  0.0000000  0.0000000 )
                  (  0.0000000  1.0000000  0.0000000 )
                  (  0.0000000  0.0000000  1.0000000 )


      isym =  2     inv. 180 deg rotation - cart. axis [1,0,0]   

 cryst.   s( 2) = (    -1          0          0      )
                  (     1          1          0      )
                  (     0          0          1      )

 cart.    s( 2) = ( -1.0000000  0.0000000  0.0000000 )
                  (  0.0000000  1.0000000  0.0000000 )
                  (  0.0000000  0.0000000  1.0000000 )


     point group C_s (m)    
     there are  2 classes
     the character table:

       E     s    
A'     1.00  1.00
A''    1.00 -1.00

     the symmetry operations in each class:
     E        1
     s        2

   Cartesian axes

     site n.     atom                  positions (alat units)
         1           C   tau(   1) = (   0.0000000   0.0000000   2.0264246  )
         2           C   tau(   2) = (   0.0000000   0.5773284   2.0264246  )
         3           C   tau(   3) = (   0.0000000   0.0000000   3.4530275  )
         4           C   tau(   4) = (   0.0000000   0.5773284   3.4530275  )

   Crystallographic axes

     site n.     atom                  positions (cryst. coord.)
         1           C   tau(   1) = (  0.0000000  0.0000000  0.2500000  )
         2           C   tau(   2) = (  0.3333207  0.6666414  0.2500000  )
         3           C   tau(   3) = (  0.0000000  0.0000000  0.4260000  )
         4           C   tau(   4) = (  0.3333207  0.6666414  0.4260000  )

     number of k points=    86  Marzari-Vanderbilt smearing, width (Ry)=  0.0001
                       cart. coord. in units 2pi/alat
        k(    1) = (   0.0000000   0.0000000   0.0000000), wk =   0.0069444
        k(    2) = (   0.0000000   0.0962250   0.0000000), wk =   0.0138889
        k(    3) = (   0.0000000   0.1924501   0.0000000), wk =   0.0138889
        k(    4) = (   0.0000000   0.2886751   0.0000000), wk =   0.0138889
        k(    5) = (   0.0000000   0.3849002   0.0000000), wk =   0.0138889
        k(    6) = (   0.0000000   0.4811252   0.0000000), wk =   0.0138889
        k(    7) = (   0.0000000  -0.5773503   0.0000000), wk =   0.0069444
        k(    8) = (   0.0833333   0.1443376   0.0000000), wk =   0.0277778
        k(    9) = (   0.0833333   0.2405626   0.0000000), wk =   0.0277778
        k(   10) = (   0.0833333   0.3367877   0.0000000), wk =   0.0277778
        k(   11) = (   0.0833333   0.4330127   0.0000000), wk =   0.0277778
        k(   12) = (   0.0833333   0.5292377   0.0000000), wk =   0.0277778
        k(   13) = (   0.1666667   0.2886751   0.0000000), wk =   0.0277778
        k(   14) = (   0.1666667   0.3849002   0.0000000), wk =   0.0277778
        k(   15) = (   0.1666667   0.4811252   0.0000000), wk =   0.0277778
        k(   16) = (   0.1666667   0.5773503   0.0000000), wk =   0.0138889
        k(   17) = (   0.2500000   0.4330127   0.0000000), wk =   0.0277778
        k(   18) = (   0.2500000   0.5292377   0.0000000), wk =   0.0277778
        k(   19) = (   0.3333333   0.5773503   0.0000000), wk =   0.0138889
        k(   20) = (  -0.0833333   0.0481125   0.0000000), wk =   0.0277778
        k(   21) = (  -0.1666667   0.0962250   0.0000000), wk =   0.0277778
        k(   22) = (  -0.2500000   0.1443376   0.0000000), wk =   0.0277778
        k(   23) = (  -0.3333333   0.1924501   0.0000000), wk =   0.0277778
        k(   24) = (  -0.4166667   0.2405626   0.0000000), wk =   0.0277778
        k(   25) = (   0.5000000  -0.2886751   0.0000000), wk =   0.0138889
        k(   26) = (   0.1666667  -0.0000000   0.0000000), wk =   0.0138889
        k(   27) = (  -0.1666667   0.1924501   0.0000000), wk =   0.0277778
        k(   28) = (   0.2500000   0.0481125   0.0000000), wk =   0.0277778
        k(   29) = (  -0.2500000   0.2405626   0.0000000), wk =   0.0277778
        k(   30) = (   0.3333333   0.0962250   0.0000000), wk =   0.0277778
        k(   31) = (  -0.3333333   0.2886751   0.0000000), wk =   0.0277778
        k(   32) = (   0.4166667   0.1443376   0.0000000), wk =   0.0277778
        k(   33) = (  -0.4166667   0.3367877   0.0000000), wk =   0.0277778
        k(   34) = (   0.5000000   0.1924501   0.0000000), wk =   0.0277778
        k(   35) = (   0.3333333  -0.0000000   0.0000000), wk =   0.0138889
        k(   36) = (  -0.2500000   0.3367877   0.0000000), wk =   0.0277778
        k(   37) = (   0.4166667   0.0481125   0.0000000), wk =   0.0277778
        k(   38) = (  -0.3333333   0.3849002   0.0000000), wk =   0.0277778
        k(   39) = (   0.5000000   0.0962250   0.0000000), wk =   0.0277778
        k(   40) = (  -0.4166667   0.4330127   0.0000000), wk =   0.0277778
        k(   41) = (   0.5000000   0.0000000   0.0000000), wk =   0.0138889
        k(   42) = (  -0.3333333   0.4811252   0.0000000), wk =   0.0277778
        k(   43) = (   0.5833333   0.0481125   0.0000000), wk =   0.0277778
        k(   44) = (   0.0000000   0.0000000   0.0000000), wk =   0.0069444
        k(   45) = (   0.0000000   0.0962250   0.0000000), wk =   0.0138889
        k(   46) = (   0.0000000   0.1924501   0.0000000), wk =   0.0138889
        k(   47) = (   0.0000000   0.2886751   0.0000000), wk =   0.0138889
        k(   48) = (   0.0000000   0.3849002   0.0000000), wk =   0.0138889
        k(   49) = (   0.0000000   0.4811252   0.0000000), wk =   0.0138889
        k(   50) = (   0.0000000  -0.5773503   0.0000000), wk =   0.0069444
        k(   51) = (   0.0833333   0.1443376   0.0000000), wk =   0.0277778
        k(   52) = (   0.0833333   0.2405626   0.0000000), wk =   0.0277778
        k(   53) = (   0.0833333   0.3367877   0.0000000), wk =   0.0277778
        k(   54) = (   0.0833333   0.4330127   0.0000000), wk =   0.0277778
        k(   55) = (   0.0833333   0.5292377   0.0000000), wk =   0.0277778
        k(   56) = (   0.1666667   0.2886751   0.0000000), wk =   0.0277778
        k(   57) = (   0.1666667   0.3849002   0.0000000), wk =   0.0277778
        k(   58) = (   0.1666667   0.4811252   0.0000000), wk =   0.0277778
        k(   59) = (   0.1666667   0.5773503   0.0000000), wk =   0.0138889
        k(   60) = (   0.2500000   0.4330127   0.0000000), wk =   0.0277778
        k(   61) = (   0.2500000   0.5292377   0.0000000), wk =   0.0277778
        k(   62) = (   0.3333333   0.5773503   0.0000000), wk =   0.0138889
        k(   63) = (  -0.0833333   0.0481125   0.0000000), wk =   0.0277778
        k(   64) = (  -0.1666667   0.0962250   0.0000000), wk =   0.0277778
        k(   65) = (  -0.2500000   0.1443376   0.0000000), wk =   0.0277778
        k(   66) = (  -0.3333333   0.1924501   0.0000000), wk =   0.0277778
        k(   67) = (  -0.4166667   0.2405626   0.0000000), wk =   0.0277778
        k(   68) = (   0.5000000  -0.2886751   0.0000000), wk =   0.0138889
        k(   69) = (   0.1666667  -0.0000000   0.0000000), wk =   0.0138889
        k(   70) = (  -0.1666667   0.1924501   0.0000000), wk =   0.0277778
        k(   71) = (   0.2500000   0.0481125   0.0000000), wk =   0.0277778
        k(   72) = (  -0.2500000   0.2405626   0.0000000), wk =   0.0277778
        k(   73) = (   0.3333333   0.0962250   0.0000000), wk =   0.0277778
        k(   74) = (  -0.3333333   0.2886751   0.0000000), wk =   0.0277778
        k(   75) = (   0.4166667   0.1443376   0.0000000), wk =   0.0277778
        k(   76) = (  -0.4166667   0.3367877   0.0000000), wk =   0.0277778
        k(   77) = (   0.5000000   0.1924501   0.0000000), wk =   0.0277778
        k(   78) = (   0.3333333  -0.0000000   0.0000000), wk =   0.0138889
        k(   79) = (  -0.2500000   0.3367877   0.0000000), wk =   0.0277778
        k(   80) = (   0.4166667   0.0481125   0.0000000), wk =   0.0277778
        k(   81) = (  -0.3333333   0.3849002   0.0000000), wk =   0.0277778
        k(   82) = (   0.5000000   0.0962250   0.0000000), wk =   0.0277778
        k(   83) = (  -0.4166667   0.4330127   0.0000000), wk =   0.0277778
        k(   84) = (   0.5000000   0.0000000   0.0000000), wk =   0.0138889
        k(   85) = (  -0.3333333   0.4811252   0.0000000), wk =   0.0277778
        k(   86) = (   0.5833333   0.0481125   0.0000000), wk =   0.0277778

                       cryst. coord.
        k(    1) = (   0.0000000   0.0000000   0.0000000), wk =   0.0069444
        k(    2) = (   0.0000000   0.0833333   0.0000000), wk =   0.0138889
        k(    3) = (   0.0000000   0.1666667   0.0000000), wk =   0.0138889
        k(    4) = (   0.0000000   0.2500000   0.0000000), wk =   0.0138889
        k(    5) = (   0.0000000   0.3333333   0.0000000), wk =   0.0138889
        k(    6) = (   0.0000000   0.4166667   0.0000000), wk =   0.0138889
        k(    7) = (   0.0000000  -0.5000000   0.0000000), wk =   0.0069444
        k(    8) = (   0.0833333   0.0833333   0.0000000), wk =   0.0277778
        k(    9) = (   0.0833333   0.1666667   0.0000000), wk =   0.0277778
        k(   10) = (   0.0833333   0.2500000   0.0000000), wk =   0.0277778
        k(   11) = (   0.0833333   0.3333333   0.0000000), wk =   0.0277778
        k(   12) = (   0.0833333   0.4166667   0.0000000), wk =   0.0277778
        k(   13) = (   0.1666667   0.1666667   0.0000000), wk =   0.0277778
        k(   14) = (   0.1666667   0.2500000   0.0000000), wk =   0.0277778
        k(   15) = (   0.1666667   0.3333333   0.0000000), wk =   0.0277778
        k(   16) = (   0.1666667   0.4166667   0.0000000), wk =   0.0138889
        k(   17) = (   0.2500000   0.2500000   0.0000000), wk =   0.0277778
        k(   18) = (   0.2500000   0.3333333   0.0000000), wk =   0.0277778
        k(   19) = (   0.3333333   0.3333333   0.0000000), wk =   0.0138889
        k(   20) = (  -0.0833333   0.0833333   0.0000000), wk =   0.0277778
        k(   21) = (  -0.1666667   0.1666667   0.0000000), wk =   0.0277778
        k(   22) = (  -0.2500000   0.2500000   0.0000000), wk =   0.0277778
        k(   23) = (  -0.3333333   0.3333333   0.0000000), wk =   0.0277778
        k(   24) = (  -0.4166667   0.4166667   0.0000000), wk =   0.0277778
        k(   25) = (   0.5000000  -0.5000000   0.0000000), wk =   0.0138889
        k(   26) = (   0.1666667  -0.0833333   0.0000000), wk =   0.0138889
        k(   27) = (  -0.1666667   0.2500000   0.0000000), wk =   0.0277778
        k(   28) = (   0.2500000  -0.0833333   0.0000000), wk =   0.0277778
        k(   29) = (  -0.2500000   0.3333333   0.0000000), wk =   0.0277778
        k(   30) = (   0.3333333  -0.0833333   0.0000000), wk =   0.0277778
        k(   31) = (  -0.3333333   0.4166667   0.0000000), wk =   0.0277778
        k(   32) = (   0.4166667  -0.0833333   0.0000000), wk =   0.0277778
        k(   33) = (  -0.4166667   0.5000000   0.0000000), wk =   0.0277778
        k(   34) = (   0.5000000  -0.0833333   0.0000000), wk =   0.0277778
        k(   35) = (   0.3333333  -0.1666667   0.0000000), wk =   0.0138889
        k(   36) = (  -0.2500000   0.4166667   0.0000000), wk =   0.0277778
        k(   37) = (   0.4166667  -0.1666667   0.0000000), wk =   0.0277778
        k(   38) = (  -0.3333333   0.5000000   0.0000000), wk =   0.0277778
        k(   39) = (   0.5000000  -0.1666667   0.0000000), wk =   0.0277778
        k(   40) = (  -0.4166667   0.5833333   0.0000000), wk =   0.0277778
        k(   41) = (   0.5000000  -0.2500000   0.0000000), wk =   0.0138889
        k(   42) = (  -0.3333333   0.5833333   0.0000000), wk =   0.0277778
        k(   43) = (   0.5833333  -0.2500000   0.0000000), wk =   0.0277778
        k(   44) = (   0.0000000   0.0000000   0.0000000), wk =   0.0069444
        k(   45) = (   0.0000000   0.0833333   0.0000000), wk =   0.0138889
        k(   46) = (   0.0000000   0.1666667   0.0000000), wk =   0.0138889
        k(   47) = (   0.0000000   0.2500000   0.0000000), wk =   0.0138889
        k(   48) = (   0.0000000   0.3333333   0.0000000), wk =   0.0138889
        k(   49) = (   0.0000000   0.4166667   0.0000000), wk =   0.0138889
        k(   50) = (   0.0000000  -0.5000000   0.0000000), wk =   0.0069444
        k(   51) = (   0.0833333   0.0833333   0.0000000), wk =   0.0277778
        k(   52) = (   0.0833333   0.1666667   0.0000000), wk =   0.0277778
        k(   53) = (   0.0833333   0.2500000   0.0000000), wk =   0.0277778
        k(   54) = (   0.0833333   0.3333333   0.0000000), wk =   0.0277778
        k(   55) = (   0.0833333   0.4166667   0.0000000), wk =   0.0277778
        k(   56) = (   0.1666667   0.1666667   0.0000000), wk =   0.0277778
        k(   57) = (   0.1666667   0.2500000   0.0000000), wk =   0.0277778
        k(   58) = (   0.1666667   0.3333333   0.0000000), wk =   0.0277778
        k(   59) = (   0.1666667   0.4166667   0.0000000), wk =   0.0138889
        k(   60) = (   0.2500000   0.2500000   0.0000000), wk =   0.0277778
        k(   61) = (   0.2500000   0.3333333   0.0000000), wk =   0.0277778
        k(   62) = (   0.3333333   0.3333333   0.0000000), wk =   0.0138889
        k(   63) = (  -0.0833333   0.0833333   0.0000000), wk =   0.0277778
        k(   64) = (  -0.1666667   0.1666667   0.0000000), wk =   0.0277778
        k(   65) = (  -0.2500000   0.2500000   0.0000000), wk =   0.0277778
        k(   66) = (  -0.3333333   0.3333333   0.0000000), wk =   0.0277778
        k(   67) = (  -0.4166667   0.4166667   0.0000000), wk =   0.0277778
        k(   68) = (   0.5000000  -0.5000000   0.0000000), wk =   0.0138889
        k(   69) = (   0.1666667  -0.0833333   0.0000000), wk =   0.0138889
        k(   70) = (  -0.1666667   0.2500000   0.0000000), wk =   0.0277778
        k(   71) = (   0.2500000  -0.0833333   0.0000000), wk =   0.0277778
        k(   72) = (  -0.2500000   0.3333333   0.0000000), wk =   0.0277778
        k(   73) = (   0.3333333  -0.0833333   0.0000000), wk =   0.0277778
        k(   74) = (  -0.3333333   0.4166667   0.0000000), wk =   0.0277778
        k(   75) = (   0.4166667  -0.0833333   0.0000000), wk =   0.0277778
        k(   76) = (  -0.4166667   0.5000000   0.0000000), wk =   0.0277778
        k(   77) = (   0.5000000  -0.0833333   0.0000000), wk =   0.0277778
        k(   78) = (   0.3333333  -0.1666667   0.0000000), wk =   0.0138889
        k(   79) = (  -0.2500000   0.4166667   0.0000000), wk =   0.0277778
        k(   80) = (   0.4166667  -0.1666667   0.0000000), wk =   0.0277778
        k(   81) = (  -0.3333333   0.5000000   0.0000000), wk =   0.0277778
        k(   82) = (   0.5000000  -0.1666667   0.0000000), wk =   0.0277778
        k(   83) = (  -0.4166667   0.5833333   0.0000000), wk =   0.0277778
        k(   84) = (   0.5000000  -0.2500000   0.0000000), wk =   0.0138889
        k(   85) = (  -0.3333333   0.5833333   0.0000000), wk =   0.0277778
        k(   86) = (   0.5833333  -0.2500000   0.0000000), wk =   0.0277778

     Dense  grid:    96043 G-vectors     FFT dimensions: (  30,  30, 243)

     Smooth grid:    24369 G-vectors     FFT dimensions: (  20,  20, 160)

     Largest allocated arrays     est. size (Mb)     dimensions
        Kohn-Sham Wavefunctions         0.56 Mb     (    3054,   12)
        NL pseudopotentials             1.49 Mb     (    3054,   32)
        Each V/rho on FFT grid          6.67 Mb     (  218700,   2)
        Each G-vector array             0.73 Mb     (   96043)
        G-vector shells                 0.04 Mb     (    4763)
     Largest temporary arrays     est. size (Mb)     dimensions
        Auxiliary wavefunctions         2.24 Mb     (    3054,   48)
        Each subspace H/S matrix        0.04 Mb     (      48,   48)
        Each <psi_i|beta_j> matrix      0.01 Mb     (      32,   12)
        Arrays for rho mixing          26.70 Mb     (  218700,    8)

     Initial potential from superposition of free atoms

     starting charge   15.99979, renormalised to   16.00000

     negative rho (up, down):  2.759E-06 8.276E-06
     Starting wfc are   16 randomized atomic wfcs

     total cpu time spent up to now is        2.9 secs

     per-process dynamical memory:   105.5 Mb

     Self-consistent Calculation

     iteration #  1     ecut=    40.00 Ry     beta=0.30
     Davidson diagonalization with overlap
     ethr =  1.00E-02,  avg # of iterations =  3.3

     negative rho (up, down):  1.496E-06 5.221E-06

     Magnetic moment per site:
     atom:    1    charge:    1.6474    magn:   -0.5743    constr:    0.0000
     atom:    2    charge:    1.6474    magn:   -0.5743    constr:    0.0000
     atom:    3    charge:    1.6479    magn:   -0.5744    constr:    0.0000
     atom:    4    charge:    1.6479    magn:   -0.5744    constr:    0.0000

     total cpu time spent up to now is        9.1 secs

 ------ SPIN UP ------------


          k = 0.0000 0.0000 0.0000     band energies (ev):

   -21.7336 -21.6514  -9.3664  -8.7048  -5.8619  -5.8601  -5.8532  -5.8514
     3.3181   5.8462   5.8626   5.8655

     occupation numbers 
     1.0000   1.0000   1.0000   1.0000   1.0000   1.0000   1.0000   1.0000
     0.0000   0.0000   0.0000   0.0000

          k = 0.0000 0.0962 0.0000     band energies (ev):

   -21.5735 -21.4921  -9.1727  -8.5155  -6.4677  -6.4564  -6.1772  -6.1680
     3.4576   4.0897   4.8777   5.8716

     occupation numbers 
     1.0000   1.0000   1.0000   1.0000   1.0000   1.0000   1.0000   1.0000
     0.0000   0.0000   0.0000   0.0000

          k = 0.0000 0.1925 0.0000     band energies (ev):

   -21.0948 -21.0160  -8.5961  -8.0095  -7.9916  -7.9532  -6.9276  -6.9170
     4.1475   4.7249   5.9554   6.0440

     occupation numbers 
     1.0000   1.0000   1.0000   1.0000   1.0000   1.0000   1.0000   1.0000
     0.0000   0.0000   0.0000   0.0000

          k = 0.0000 0.2887 0.0000     band energies (ev):

   -20.3033 -20.2290 -10.0083  -9.9817  -7.7703  -7.7584  -7.6571  -7.0399
     5.2305   5.5238   5.8817   5.9183

     occupation numbers 
     1.0000   1.0000   1.0000   1.0000   1.0000   1.0000   1.0000   1.0000
     0.0000   0.0000   0.0000   0.0000

          k = 0.0000 0.3849 0.0000     band energies (ev):

   -19.2127 -19.1439 -12.1247 -12.0894  -8.4779  -8.4651  -6.4068  -5.8297
     2.9883   3.3847   5.5071   5.6164

     occupation numbers 
     1.0000   1.0000   1.0000   1.0000   1.0000   1.0000   1.0000   1.0000
     0.0000   0.0000   0.0000   0.0000

          k = 0.0000 0.4811 0.0000     band energies (ev):

   -17.8548 -17.7924 -14.1519 -14.1082  -8.9362  -8.9230  -5.0079  -4.4928
     0.9031   1.4074   5.3105   5.4195

     occupation numbers 
     1.0000   1.0000   1.0000   1.0000   1.0000   1.0000   1.0000   1.0000
     0.0000   0.0000   0.0000   0.0000

          k = 0.0000-0.5774 0.0000     band energies (ev):

   -16.6376 -16.5791 -15.5997 -15.5515  -9.0939  -9.0805  -4.1816  -3.7239
    -0.1675   0.4110   5.2407   5.3520

     occupation numbers 
     1.0000   1.0000   1.0000   1.0000   1.0000   1.0000   1.0000   1.0000
     0.0000   0.0000   0.0000   0.0000

          k = 0.0833 0.1443 0.0000     band energies (ev):

   -21.2540 -21.1745  -8.7872  -8.1396  -7.4427  -7.4274  -6.8109  -6.7996
     3.9199   4.5353   6.2152   6.3142

     occupation numbers 
     1.0000   1.0000   1.0000   1.0000   1.0000   1.0000   1.0000   1.0000
     0.0000   0.0000   0.0000   0.0000

          k = 0.0833 0.2406 0.0000     band energies (ev):

   -20.6190 -20.5428  -9.0670  -9.0448  -8.0285  -7.7556  -7.7417  -7.4004
     4.7783   6.0366   6.2809   6.5848

     occupation numbers 
     1.0000   1.0000   1.0000   1.0000   1.0000   1.0000   1.0000   1.0000
     0.0000   0.0000   0.0000   0.0000

          k = 0.0833 0.3368 0.0000     band energies (ev):

   -19.6777 -19.6067 -11.0488 -11.0183  -8.6072  -8.5917  -6.9272  -6.3317
     3.9709   4.3000   6.3303   6.4291

     occupation numbers 
     1.0000   1.0000   1.0000   1.0000   1.0000   1.0000   1.0000   1.0000
     0.0000   0.0000   0.0000   0.0000

          k = 0.0833 0.4330 0.0000     band energies (ev):

   -18.4503 -18.3852 -13.0916 -13.0524  -9.2217  -9.2053  -5.5687  -5.0227
     1.8227   2.2516   6.0785   6.1938

     occupation numbers 
     1.0000   1.0000   1.0000   1.0000   1.0000   1.0000   1.0000   1.0000
     0.0000   0.0000   0.0000   0.0000

          k = 0.0833 0.5292 0.0000     band energies (ev):

   -17.0154 -16.9566 -14.9648 -14.9181  -9.5407  -9.5239  -4.2843  -3.8088
     0.0973   0.6271   5.9299   6.0485

     occupation numbers 
     1.0000   1.0000   1.0000   1.0000   1.0000   1.0000   1.0000   1.0000
     0.0000   0.0000   0.0000   0.0000

          k = 0.1667 0.2887 0.0000     band energies (ev):

   -19.8343 -19.7618 -10.3498 -10.3230  -9.0360  -9.0161  -7.1035  -6.5016
     4.3861   4.6728   5.8528   6.5060

     occupation numbers 
     1.0000   1.0000   1.0000   1.0000   1.0000   1.0000   1.0000   1.0000
     0.0000   0.0000   0.0000   0.0000

          k = 0.1667 0.3849 0.0000     band energies (ev):

   -18.7542 -18.6881 -12.0066 -11.9726 -10.0480 -10.0252  -5.8685  -5.3067
     2.4966   2.8440   8.0752   8.1857

     occupation numbers 
     1.0000   1.0000   1.0000   1.0000   1.0000   1.0000   1.0000   1.0000
     0.0000   0.0000   0.0000   0.0000

          k = 0.1667 0.4811 0.0000     band energies (ev):

   -17.4176 -17.3576 -13.8428 -13.8008 -10.6081 -10.5839  -4.4657  -3.9620
     0.6352   1.0624   7.7496   7.9049

     occupation numbers 
     1.0000   1.0000   1.0000   1.0000   1.0000   1.0000   1.0000   1.0000
     0.0000   0.0000   0.0000   0.0000

          k = 0.1667 0.5774 0.0000     band energies (ev):

   -16.2298 -16.1739 -15.2189 -15.1719 -10.7884 -10.7639  -3.5918  -3.1424
    -0.4054   0.0861   7.6432   7.8033

     occupation numbers 
     1.0000   1.0000   1.0000   1.0000   1.0000   1.0000   0.8839   0.0000
     0.0000   0.0000   0.0000   0.0000

          k = 0.2500 0.4330 0.0000     band energies (ev):

   -17.5603 -17.5000 -13.0156 -12.9772 -11.4514 -11.4225  -4.5471  -4.0320
     0.9127   1.2839  10.2194  10.4916

     occupation numbers 
     1.0000   1.0000   1.0000   1.0000   1.0000   1.0000   1.0000   1.0000
     0.0000   0.0000   0.0000   0.0000

          k = 0.2500 0.5292 0.0000     band energies (ev):

   -16.1846 -16.1303 -14.3794 -14.3348 -12.1357 -12.1043  -3.1863  -2.7293
    -0.5743  -0.1589   9.8706  10.1719

     occupation numbers 
     1.0000   1.0000   1.0000   1.0000   1.0000   1.0000   0.0000   0.0000
     0.0000   0.0000   0.0000   0.0000

          k = 0.3333 0.5774 0.0000     band energies (ev):

   -15.0131 -15.0123 -14.9645 -14.9637 -12.9749 -12.9405  -1.8543  -1.8535
    -1.4318  -1.4310  11.7117  11.8249

     occupation numbers 
     1.0000   1.0000   1.0000   1.0000   1.0000   1.0000   0.0000   0.0000
     0.0000   0.0000   0.0000   0.0000

          k =-0.0833 0.0481 0.0000     band energies (ev):

   -21.5734 -21.4921  -9.1727  -8.5156  -6.4665  -6.4551  -6.1785  -6.1692
     3.4970   4.0797   5.9437   5.9898

     occupation numbers 
     1.0000   1.0000   1.0000   1.0000   1.0000   1.0000   1.0000   1.0000
     0.0000   0.0000   0.0000   0.0000

          k =-0.1667 0.0962 0.0000     band energies (ev):

   -21.0948 -21.0160  -8.5963  -8.0086  -7.9907  -7.9532  -6.9287  -6.9181
     4.1218   4.7425   5.9932   6.0332

     occupation numbers 
     1.0000   1.0000   1.0000   1.0000   1.0000   1.0000   1.0000   1.0000
     0.0000   0.0000   0.0000   0.0000

          k =-0.2500 0.1443 0.0000     band energies (ev):

   -20.3032 -20.2290 -10.0077  -9.9810  -7.7712  -7.7592  -7.6572  -7.0400
     5.2309   5.5238   5.8836   5.9229

     occupation numbers 
     1.0000   1.0000   1.0000   1.0000   1.0000   1.0000   1.0000   1.0000
     0.0000   0.0000   0.0000   0.0000

          k =-0.3333 0.1925 0.0000     band energies (ev):

   -19.2127 -19.1439 -12.1241 -12.0888  -8.4787  -8.4659  -6.4069  -5.8299
     2.9891   3.3851   5.5165   5.6171

     occupation numbers 
     1.0000   1.0000   1.0000   1.0000   1.0000   1.0000   1.0000   1.0000
     0.0000   0.0000   0.0000   0.0000

          k =-0.4167 0.2406 0.0000     band energies (ev):

   -17.8549 -17.7925 -14.1514 -14.1076  -8.9369  -8.9237  -5.0082  -4.4932
     0.9039   1.4080   5.3099   5.4198

     occupation numbers 
     1.0000   1.0000   1.0000   1.0000   1.0000   1.0000   1.0000   1.0000
     0.0000   0.0000   0.0000   0.0000

          k = 0.5000-0.2887 0.0000     band energies (ev):

   -16.6381 -16.5795 -15.5987 -15.5506  -9.0945  -9.0812  -4.1822  -3.7246
    -0.1665   0.4121   5.2402   5.3521

     occupation numbers 
     1.0000   1.0000   1.0000   1.0000   1.0000   1.0000   1.0000   1.0000
     0.0000   0.0000   0.0000   0.0000

          k = 0.1667-0.0000 0.0000     band energies (ev):

   -21.2540 -21.1745  -8.7873  -8.1398  -7.4416  -7.4262  -6.8122  -6.8008
     3.8911   4.4958   5.3832   6.2445

     occupation numbers 
     1.0000   1.0000   1.0000   1.0000   1.0000   1.0000   1.0000   1.0000
     0.0000   0.0000   0.0000   0.0000

          k =-0.1667 0.1925 0.0000     band energies (ev):

   -20.6190 -20.5428  -9.0665  -9.0443  -8.0286  -7.7561  -7.7423  -7.4004
     4.7847   6.0368   6.2836   6.5871

     occupation numbers 
     1.0000   1.0000   1.0000   1.0000   1.0000   1.0000   1.0000   1.0000
     0.0000   0.0000   0.0000   0.0000

          k = 0.2500 0.0481 0.0000     band energies (ev):

   -20.6190 -20.5428  -9.0660  -9.0437  -8.0286  -7.7567  -7.7430  -7.4004
     4.7765   6.0377   6.2831   6.5801

     occupation numbers 
     1.0000   1.0000   1.0000   1.0000   1.0000   1.0000   1.0000   1.0000
     0.0000   0.0000   0.0000   0.0000

          k =-0.2500 0.2406 0.0000     band energies (ev):

   -19.6777 -19.6066 -11.0483 -11.0178  -8.6079  -8.5924  -6.9273  -6.3317
     3.9709   4.3002   6.3550   6.4280

     occupation numbers 
     1.0000   1.0000   1.0000   1.0000   1.0000   1.0000   1.0000   1.0000
     0.0000   0.0000   0.0000   0.0000

          k = 0.3333 0.0962 0.0000     band energies (ev):

   -19.6776 -19.6066 -11.0481 -11.0175  -8.6081  -8.5925  -6.9274  -6.3318
     3.9712   4.3004   6.3485   6.4270

     occupation numbers 
     1.0000   1.0000   1.0000   1.0000   1.0000   1.0000   1.0000   1.0000
     0.0000   0.0000   0.0000   0.0000

          k =-0.3333 0.2887 0.0000     band energies (ev):

   -18.4503 -18.3853 -13.0911 -13.0519  -9.2223  -9.2059  -5.5689  -5.0229
     1.8230   2.2522   6.0762   6.1940

     occupation numbers 
     1.0000   1.0000   1.0000   1.0000   1.0000   1.0000   1.0000   1.0000
     0.0000   0.0000   0.0000   0.0000

          k = 0.4167 0.1443 0.0000     band energies (ev):

   -18.4503 -18.3852 -13.0910 -13.0518  -9.2224  -9.2060  -5.5689  -5.0230
     1.8234   2.2523   6.0773   6.1931

     occupation numbers 
     1.0000   1.0000   1.0000   1.0000   1.0000   1.0000   1.0000   1.0000
     0.0000   0.0000   0.0000   0.0000

          k =-0.4167 0.3368 0.0000     band energies (ev):

   -17.0156 -16.9567 -14.9642 -14.9175  -9.5413  -9.5245  -4.2848  -3.8093
     0.0982   0.6280   5.9287   6.0477

     occupation numbers 
     1.0000   1.0000   1.0000   1.0000   1.0000   1.0000   1.0000   1.0000
     0.0000   0.0000   0.0000   0.0000

          k = 0.5000 0.1925 0.0000     band energies (ev):

   -17.0156 -16.9567 -14.9641 -14.9175  -9.5413  -9.5245  -4.2848  -3.8093
     0.0982   0.6280   5.9287   6.0474

     occupation numbers 
     1.0000   1.0000   1.0000   1.0000   1.0000   1.0000   1.0000   1.0000
     0.0000   0.0000   0.0000   0.0000

          k = 0.3333-0.0000 0.0000     band energies (ev):

   -19.8341 -19.7618 -10.3490 -10.3221  -9.0369  -9.0171  -7.1036  -6.5016
     4.3863   4.6732   5.8637   6.5700

     occupation numbers 
     1.0000   1.0000   1.0000   1.0000   1.0000   1.0000   1.0000   1.0000
     0.0000   0.0000   0.0000   0.0000

          k =-0.2500 0.3368 0.0000     band energies (ev):

   -18.7544 -18.6881 -12.0062 -11.9722 -10.0484 -10.0256  -5.8686  -5.3068
     2.4966   2.8442   8.0514   8.1834

     occupation numbers 
     1.0000   1.0000   1.0000   1.0000   1.0000   1.0000   1.0000   1.0000
     0.0000   0.0000   0.0000   0.0000

          k = 0.4167 0.0481 0.0000     band energies (ev):

   -18.7543 -18.6881 -12.0058 -11.9718 -10.0489 -10.0260  -5.8687  -5.3069
     2.4969   2.8445   8.0751   8.1747

     occupation numbers 
     1.0000   1.0000   1.0000   1.0000   1.0000   1.0000   1.0000   1.0000
     0.0000   0.0000   0.0000   0.0000

          k =-0.3333 0.3849 0.0000     band energies (ev):

   -17.4176 -17.3576 -13.8423 -13.8003 -10.6086 -10.5845  -4.4659  -3.9622
     0.6355   1.0630   7.7489   7.9047

     occupation numbers 
     1.0000   1.0000   1.0000   1.0000   1.0000   1.0000   1.0000   1.0000
     0.0000   0.0000   0.0000   0.0000

          k = 0.5000 0.0962 0.0000     band energies (ev):

   -17.4175 -17.3576 -13.8422 -13.8002 -10.6088 -10.5846  -4.4660  -3.9624
     0.6360   1.0633   7.7471   7.9044

     occupation numbers 
     1.0000   1.0000   1.0000   1.0000   1.0000   1.0000   1.0000   1.0000
     0.0000   0.0000   0.0000   0.0000

          k =-0.4167 0.4330 0.0000     band energies (ev):

   -16.2303 -16.1743 -15.2179 -15.1709 -10.7890 -10.7645  -3.5924  -3.1430
    -0.4046   0.0870   7.6422   7.8028

     occupation numbers 
     1.0000   1.0000   1.0000   1.0000   1.0000   1.0000   1.0580   0.0000
     0.0000   0.0000   0.0000   0.0000

          k = 0.5000 0.0000 0.0000     band energies (ev):

   -17.5604 -17.5000 -13.0149 -12.9765 -11.4523 -11.4232  -4.5474  -4.0322
     0.9132   1.2845  10.2209  10.4930

     occupation numbers 
     1.0000   1.0000   1.0000   1.0000   1.0000   1.0000   1.0000   1.0000
     0.0000   0.0000   0.0000   0.0000

          k =-0.3333 0.4811 0.0000     band energies (ev):

   -16.1847 -16.1304 -14.3789 -14.3343 -12.1361 -12.1046  -3.1866  -2.7297
    -0.5740  -0.1584   9.8549  10.1666

     occupation numbers 
     1.0000   1.0000   1.0000   1.0000   1.0000   1.0000   0.0000   0.0000
     0.0000   0.0000   0.0000   0.0000

          k = 0.5833 0.0481 0.0000     band energies (ev):

   -16.1847 -16.1305 -14.3786 -14.3340 -12.1363 -12.1049  -3.1868  -2.7299
    -0.5736  -0.1580   9.8590  10.1701

     occupation numbers 
     1.0000   1.0000   1.0000   1.0000   1.0000   1.0000   0.0000   0.0000
     0.0000   0.0000   0.0000   0.0000

 ------ SPIN DOWN ----------


          k = 0.0000 0.0000 0.0000     band energies (ev):

   -25.3999 -25.3343 -12.5603 -12.0289  -9.8659  -9.8640  -9.8588  -9.8569
     2.0990   2.1011   2.1199   2.1222

     occupation numbers 
     1.0000   1.0000   1.0000   1.0000   1.0000   1.0000   1.0000   1.0000
     0.0000   0.0000   0.0000   0.0000

          k = 0.0000 0.0962 0.0000     band energies (ev):

   -25.2421 -25.1774 -12.3706 -11.8431 -10.4503 -10.4412 -10.1695 -10.1620
     2.2433   2.2505   2.7484   2.7686

     occupation numbers 
     1.0000   1.0000   1.0000   1.0000   1.0000   1.0000   1.0000   1.0000
     0.0000   0.0000   0.0000   0.0000

          k = 0.0000 0.1925 0.0000     band energies (ev):

   -24.7712 -24.7086 -11.9443 -11.9297 -11.8084 -11.2929 -10.8966 -10.8881
     2.3639   2.3795   3.5555   3.7129

     occupation numbers 
     1.0000   1.0000   1.0000   1.0000   1.0000   1.0000   1.0000   1.0000
     0.0000   0.0000   0.0000   0.0000

          k = 0.0000 0.2887 0.0000     band energies (ev):

   -23.9937 -23.9343 -13.8899 -13.8687 -11.7186 -11.7091 -10.8946 -10.4007
     1.6418   1.8678   2.1366   2.2254

     occupation numbers 
     1.0000   1.0000   1.0000   1.0000   1.0000   1.0000   1.0000   1.0000
     0.0000   0.0000   0.0000   0.0000

          k = 0.0000 0.3849 0.0000     band energies (ev):

   -22.9223 -22.8674 -15.9561 -15.9279 -12.4120 -12.4017  -9.6834  -9.2228
    -0.4895  -0.1837   1.9211   2.0329

     occupation numbers 
     1.0000   1.0000   1.0000   1.0000   1.0000   1.0000   1.0000   1.0000
     0.0000   0.0000   0.0000   0.0000

          k = 0.0000 0.4811 0.0000     band energies (ev):

   -21.5922 -21.5424 -17.9366 -17.9019 -12.8622 -12.8516  -8.3438  -7.9333
    -2.4659  -2.0765   1.7540   1.8419

     occupation numbers 
     1.0000   1.0000   1.0000   1.0000   1.0000   1.0000   1.0000   1.0000
     0.0000   0.0000   0.0000   0.0000

          k = 0.0000-0.5774 0.0000     band energies (ev):

   -20.4214 -20.3746 -19.3320 -19.2939 -13.0172 -13.0065  -7.5712  -7.2041
    -3.4649  -3.0198   1.6774   1.7668

     occupation numbers 
     1.0000   1.0000   1.0000   1.0000   1.0000   1.0000   1.0000   1.0000
     0.0000   0.0000   0.0000   0.0000

          k = 0.0833 0.1443 0.0000     band energies (ev):

   -24.9279 -24.8645 -11.9946 -11.4753 -11.3979 -11.3856 -10.7780 -10.7689
     2.6010   2.6288   3.9934   4.1341

     occupation numbers 
     1.0000   1.0000   1.0000   1.0000   1.0000   1.0000   1.0000   1.0000
     0.0000   0.0000   0.0000   0.0000

          k = 0.0833 0.2406 0.0000     band energies (ev):

   -24.3036 -24.2430 -12.9787 -12.9610 -11.6923 -11.6812 -11.2552 -10.7524
     2.3975   2.5879   2.7388   2.9063

     occupation numbers 
     1.0000   1.0000   1.0000   1.0000   1.0000   1.0000   1.0000   1.0000
     0.0000   0.0000   0.0000   0.0000

          k = 0.0833 0.3368 0.0000     band energies (ev):

   -23.3789 -23.3222 -14.9096 -14.8853 -12.5244 -12.5122 -10.1858  -9.7101
     0.4249   0.6809   2.6842   2.7860

     occupation numbers 
     1.0000   1.0000   1.0000   1.0000   1.0000   1.0000   1.0000   1.0000
     0.0000   0.0000   0.0000   0.0000

          k = 0.0833 0.4330 0.0000     band energies (ev):

   -22.1746 -22.1228 -16.9038 -16.8727 -13.1278 -13.1149  -8.8754  -8.4403
    -1.6190  -1.2865   2.4821   2.5748

     occupation numbers 
     1.0000   1.0000   1.0000   1.0000   1.0000   1.0000   1.0000   1.0000
     0.0000   0.0000   0.0000   0.0000

          k = 0.0833 0.5292 0.0000     band energies (ev):

   -20.7758 -20.7288 -18.7283 -18.6912 -13.4418 -13.4284  -7.6576  -7.2776
    -3.2448  -2.8357   2.3460   2.4400

     occupation numbers 
     1.0000   1.0000   1.0000   1.0000   1.0000   1.0000   1.0000   1.0000
     0.0000   0.0000   0.0000   0.0000

          k = 0.1667 0.2887 0.0000     band energies (ev):

   -23.5313 -23.4746 -14.2416 -14.2201 -12.9202 -12.9049 -10.3558  -9.8746
     0.7983   1.0244   5.2272   5.3915

     occupation numbers 
     1.0000   1.0000   1.0000   1.0000   1.0000   1.0000   1.0000   1.0000
     0.0000   0.0000   0.0000   0.0000

          k = 0.1667 0.3849 0.0000     band energies (ev):

   -22.4726 -22.4198 -15.8580 -15.8310 -13.9064 -13.8886  -9.1602  -8.7123
    -1.0224  -0.7485   4.3837   4.5232

     occupation numbers 
     1.0000   1.0000   1.0000   1.0000   1.0000   1.0000   1.0000   1.0000
     0.0000   0.0000   0.0000   0.0000

          k = 0.1667 0.4811 0.0000     band energies (ev):

   -21.1641 -21.1162 -17.6451 -17.6117 -14.4592 -14.4403  -7.8135  -7.4122
    -2.8011  -2.4667   4.1287   4.2464

     occupation numbers 
     1.0000   1.0000   1.0000   1.0000   1.0000   1.0000   1.0000   1.0000
     0.0000   0.0000   0.0000   0.0000

          k = 0.1667 0.5774 0.0000     band energies (ev):

   -20.0206 -19.9759 -18.9694 -18.9321 -14.6377 -14.6184  -6.9906  -6.6305
    -3.7790  -3.3971   4.0291   4.1509

     occupation numbers 
     1.0000   1.0000   1.0000   1.0000   1.0000   1.0000   1.0000   1.0000
     1.0000   0.0000   0.0000   0.0000

          k = 0.2500 0.4330 0.0000     band energies (ev):

   -21.3026 -21.2546 -16.8605 -16.8298 -15.2520 -15.2297  -7.8845  -7.4744
    -2.5750  -2.2802   6.5199   6.7000

     occupation numbers 
     1.0000   1.0000   1.0000   1.0000   1.0000   1.0000   1.0000   1.0000
     0.0000   0.0000   0.0000   0.0000

          k = 0.2500 0.5292 0.0000     band energies (ev):

   -19.9627 -19.9193 -18.1838 -18.1483 -15.9223 -15.8978  -6.5799  -6.2151
    -4.0150  -3.6856   6.2532   6.4701

     occupation numbers 
     1.0000   1.0000   1.0000   1.0000   1.0000   1.0000   1.0000   1.0000
     1.0000   1.0000   0.0000   0.0000

          k = 0.3333 0.5774 0.0000     band energies (ev):

   -18.8245 -18.8238 -18.7857 -18.7849 -16.7085 -16.6821  -5.2833  -5.2825
    -4.9459  -4.9451   8.0435   8.1859

     occupation numbers 
     1.0000   1.0000   1.0000   1.0000   1.0000   1.0000   1.0000   1.0000
     1.0000   1.0000   0.0000   0.0000

          k =-0.0833 0.0481 0.0000     band energies (ev):

   -25.2420 -25.1774 -12.3708 -11.8433 -10.4491 -10.4399 -10.1708 -10.1633
     2.2411   2.2464   2.7501   2.7702

     occupation numbers 
     1.0000   1.0000   1.0000   1.0000   1.0000   1.0000   1.0000   1.0000
     0.0000   0.0000   0.0000   0.0000

          k =-0.1667 0.0962 0.0000     band energies (ev):

   -24.7713 -24.7086 -11.9433 -11.9287 -11.8083 -11.2931 -10.8977 -10.8892
     2.3668   2.3866   3.5559   3.7114

     occupation numbers 
     1.0000   1.0000   1.0000   1.0000   1.0000   1.0000   1.0000   1.0000
     0.0000   0.0000   0.0000   0.0000

          k =-0.2500 0.1443 0.0000     band energies (ev):

   -23.9937 -23.9343 -13.8891 -13.8679 -11.7194 -11.7100 -10.8946 -10.4008
     1.6423   1.8684   2.1380   2.2242

     occupation numbers 
     1.0000   1.0000   1.0000   1.0000   1.0000   1.0000   1.0000   1.0000
     0.0000   0.0000   0.0000   0.0000

          k =-0.3333 0.1925 0.0000     band energies (ev):

   -22.9222 -22.8675 -15.9555 -15.9275 -12.4128 -12.4025  -9.6835  -9.2230
    -0.4891  -0.1833   1.9210   2.0075

     occupation numbers 
     1.0000   1.0000   1.0000   1.0000   1.0000   1.0000   1.0000   1.0000
     0.0000   0.0000   0.0000   0.0000

          k =-0.4167 0.2406 0.0000     band energies (ev):

   -21.5922 -21.5424 -17.9361 -17.9013 -12.8628 -12.8523  -8.3441  -7.9337
    -2.4652  -2.0757   1.7548   1.8412

     occupation numbers 
     1.0000   1.0000   1.0000   1.0000   1.0000   1.0000   1.0000   1.0000
     0.0000   0.0000   0.0000   0.0000

          k = 0.5000-0.2887 0.0000     band energies (ev):

   -20.4219 -20.3751 -19.3310 -19.2930 -13.0179 -13.0072  -7.5718  -7.2048
    -3.4638  -3.0187   1.6777   1.7664

     occupation numbers 
     1.0000   1.0000   1.0000   1.0000   1.0000   1.0000   1.0000   1.0000
     0.0000   0.0000   0.0000   0.0000

          k = 0.1667-0.0000 0.0000     band energies (ev):

   -24.9279 -24.8645 -11.9948 -11.4751 -11.3967 -11.3843 -10.7793 -10.7702
     2.5985   2.6287   3.9934   4.1274

     occupation numbers 
     1.0000   1.0000   1.0000   1.0000   1.0000   1.0000   1.0000   1.0000
     0.0000   0.0000   0.0000   0.0000

          k =-0.1667 0.1925 0.0000     band energies (ev):

   -24.3035 -24.2430 -12.9782 -12.9605 -11.6929 -11.6818 -11.2553 -10.7524
     2.3977   2.5879   2.7395   2.9088

     occupation numbers 
     1.0000   1.0000   1.0000   1.0000   1.0000   1.0000   1.0000   1.0000
     0.0000   0.0000   0.0000   0.0000

          k = 0.2500 0.0481 0.0000     band energies (ev):

   -24.3036 -24.2430 -12.9776 -12.9599 -11.6935 -11.6825 -11.2553 -10.7525
     2.3978   2.5883   2.7373   2.9024

     occupation numbers 
     1.0000   1.0000   1.0000   1.0000   1.0000   1.0000   1.0000   1.0000
     0.0000   0.0000   0.0000   0.0000

          k =-0.2500 0.2406 0.0000     band energies (ev):

   -23.3789 -23.3223 -14.9090 -14.8847 -12.5253 -12.5128 -10.1859  -9.7102
     0.4255   0.6813   2.6887   2.7844

     occupation numbers 
     1.0000   1.0000   1.0000   1.0000   1.0000   1.0000   1.0000   1.0000
     0.0000   0.0000   0.0000   0.0000

          k = 0.3333 0.0962 0.0000     band energies (ev):

   -23.3789 -23.3222 -14.9088 -14.8846 -12.5254 -12.5131 -10.1860  -9.7102
     0.4257   0.6814   2.6859   2.7843

     occupation numbers 
     1.0000   1.0000   1.0000   1.0000   1.0000   1.0000   1.0000   1.0000
     0.0000   0.0000   0.0000   0.0000

          k =-0.3333 0.2887 0.0000     band energies (ev):

   -22.1746 -22.1228 -16.9033 -16.8722 -13.1285 -13.1156  -8.8756  -8.4406
    -1.6185  -1.2859   2.4840   2.5746

     occupation numbers 
     1.0000   1.0000   1.0000   1.0000   1.0000   1.0000   1.0000   1.0000
     0.0000   0.0000   0.0000   0.0000

          k = 0.4167 0.1443 0.0000     band energies (ev):

   -22.1747 -22.1228 -16.9033 -16.8721 -13.1285 -13.1156  -8.8756  -8.4406
    -1.6183  -1.2858   2.4825   2.5752

     occupation numbers 
     1.0000   1.0000   1.0000   1.0000   1.0000   1.0000   1.0000   1.0000
     0.0000   0.0000   0.0000   0.0000

          k =-0.4167 0.3368 0.0000     band energies (ev):

   -20.7759 -20.7289 -18.7276 -18.6900 -13.4425 -13.4288  -7.6582  -7.2782
    -3.2438  -2.8347   2.3459   2.4516

     occupation numbers 
     1.0000   1.0000   1.0000   1.0000   1.0000   1.0000   1.0000   1.0000
     0.0000   0.0000   0.0000   0.0000

          k = 0.5000 0.1925 0.0000     band energies (ev):

   -20.7760 -20.7290 -18.7276 -18.6905 -13.4425 -13.4291  -7.6582  -7.2782
    -3.2439  -2.8345   2.3457   2.4393

     occupation numbers 
     1.0000   1.0000   1.0000   1.0000   1.0000   1.0000   1.0000   1.0000
     0.0000   0.0000   0.0000   0.0000

          k = 0.3333-0.0000 0.0000     band energies (ev):

   -23.5312 -23.4746 -14.2407 -14.2192 -12.9212 -12.9059 -10.3560  -9.8748
     0.7986   1.0249   5.3387   5.4159

     occupation numbers 
     1.0000   1.0000   1.0000   1.0000   1.0000   1.0000   1.0000   1.0000
     0.0000   0.0000   0.0000   0.0000

          k =-0.2500 0.3368 0.0000     band energies (ev):

   -22.4727 -22.4199 -15.8577 -15.8305 -13.9069 -13.8891  -9.1603  -8.7125
    -1.0222  -0.7485   4.3064   4.5210

     occupation numbers 
     1.0000   1.0000   1.0000   1.0000   1.0000   1.0000   1.0000   1.0000
     0.0000   0.0000   0.0000   0.0000

          k = 0.4167 0.0481 0.0000     band energies (ev):

   -22.4726 -22.4199 -15.8572 -15.8301 -13.9074 -13.8895  -9.1604  -8.7126
    -1.0220  -0.7481   4.3841   4.5177

     occupation numbers 
     1.0000   1.0000   1.0000   1.0000   1.0000   1.0000   1.0000   1.0000
     0.0000   0.0000   0.0000   0.0000

          k =-0.3333 0.3849 0.0000     band energies (ev):

   -21.1640 -21.1163 -17.6446 -17.6112 -14.4597 -14.4408  -7.8137  -7.4125
    -2.8006  -2.4661   4.1264   4.2479

     occupation numbers 
     1.0000   1.0000   1.0000   1.0000   1.0000   1.0000   1.0000   1.0000
     0.0000   0.0000   0.0000   0.0000

          k = 0.5000 0.0962 0.0000     band energies (ev):

   -21.1641 -21.1163 -17.6444 -17.6110 -14.4599 -14.4410  -7.8139  -7.4127
    -2.8005  -2.4658   4.1265   4.2467

     occupation numbers 
     1.0000   1.0000   1.0000   1.0000   1.0000   1.0000   1.0000   1.0000
     0.0000   0.0000   0.0000   0.0000

          k =-0.4167 0.4330 0.0000     band energies (ev):

   -20.0211 -19.9764 -18.9683 -18.9311 -14.6384 -14.6191  -6.9913  -6.6312
    -3.7782  -3.3960   4.0289   4.1506

     occupation numbers 
     1.0000   1.0000   1.0000   1.0000   1.0000   1.0000   1.0000   1.0000
     1.0000   0.0000   0.0000   0.0000

          k = 0.5000 0.0000 0.0000     band energies (ev):

   -21.3026 -21.2547 -16.8598 -16.8290 -15.2528 -15.2305  -7.8848  -7.4747
    -2.5744  -2.2797   6.5212   6.7007

     occupation numbers 
     1.0000   1.0000   1.0000   1.0000   1.0000   1.0000   1.0000   1.0000
     0.0000   0.0000   0.0000   0.0000

          k =-0.3333 0.4811 0.0000     band energies (ev):

   -19.9628 -19.9195 -18.1833 -18.1478 -15.9228 -15.8984  -6.5801  -6.2154
    -4.0146  -3.6851   6.2529   6.4664

     occupation numbers 
     1.0000   1.0000   1.0000   1.0000   1.0000   1.0000   1.0000   1.0000
     1.0000   1.0000   0.0000   0.0000

          k = 0.5833 0.0481 0.0000     band energies (ev):

   -19.9629 -19.9196 -18.1831 -18.1475 -15.9230 -15.8986  -6.5804  -6.2158
    -4.0141  -3.6848   6.2524   6.4670

     occupation numbers 
     1.0000   1.0000   1.0000   1.0000   1.0000   1.0000   1.0000   1.0000
     1.0000   1.0000   0.0000   0.0000

     the Fermi energy is    -3.5909 ev

!    total energy              =     -45.36199724 Ry
     Harris-Foulkes estimate   =     -45.23795544 Ry
     estimated scf accuracy    <       0.54465008 Ry

     The total energy is the sum of the following terms:

     one-electron contribution =    -522.12806523 Ry
     hartree contribution      =     260.97678532 Ry
     xc contribution           =     -13.91774379 Ry
     ewald contribution        =     225.00644935 Ry
     scf correction            =       4.70057674 Ry
     smearing contrib. (-TS)   =       0.00000038 Ry

     total magnetization       =    -0.47 Bohr mag/cell
     absolute magnetization    =     0.52 Bohr mag/cell

     iteration #  2     ecut=    40.00 Ry     beta=0.30
     Davidson diagonalization with overlap
     ethr =  3.40E-03,  avg # of iterations =  1.1

     negative rho (up, down):  6.245E-05 4.463E-05

     Magnetic moment per site:
     atom:    1    charge:    1.7382    magn:   -0.1636    constr:    0.0000
     atom:    2    charge:    1.7382    magn:   -0.1636    constr:    0.0000
     atom:    3    charge:    1.7386    magn:   -0.1637    constr:    0.0000
     atom:    4    charge:    1.7387    magn:   -0.1637    constr:    0.0000

     total cpu time spent up to now is       13.2 secs

 ------ SPIN UP ------------


          k = 0.0000 0.0000 0.0000     band energies (ev):

   -20.6855 -20.5942  -8.6202  -7.8968  -4.6268  -4.6250  -4.6171  -4.6154
     3.1438   3.5940   4.3750   5.5843

     occupation numbers 
     1.0000   1.0000   1.0000   1.0000   1.0000   1.0000   1.0000   1.0000
     0.0000   0.0000   0.0000   0.0000

          k = 0.0000 0.0962 0.0000     band energies (ev):

   -20.5239 -20.4335  -8.4238  -7.7052  -5.2439  -5.2312  -4.9477  -4.9374
     3.3638   3.8547   4.5829   6.0716

     occupation numbers 
     1.0000   1.0000   1.0000   1.0000   1.0000   1.0000   1.0000   1.0000
     0.0000   0.0000   0.0000   0.0000

          k = 0.0000 0.1925 0.0000     band energies (ev):

   -20.0408 -19.9533  -7.8402  -7.1362  -6.8113  -6.7908  -5.7093  -5.6974
     4.0756   4.5031   6.8542   7.1370

     occupation numbers 
     1.0000   1.0000   1.0000   1.0000   1.0000   1.0000   1.0000   1.0000
     0.0000   0.0000   0.0000   0.0000

          k = 0.0000 0.2887 0.0000     band energies (ev):

   -19.2423 -19.1594  -8.8386  -8.8088  -6.8878  -6.5618  -6.5485  -6.2100
     6.2231   6.5541   6.8226   6.9672

     occupation numbers 
     1.0000   1.0000   1.0000   1.0000   1.0000   1.0000   1.0000   1.0000
     0.0000   0.0000   0.0000   0.0000

          k = 0.0000 0.3849 0.0000     band energies (ev):

   -18.1410 -18.0643 -10.9817 -10.9421  -7.2763  -7.2620  -5.6157  -4.9803
     3.9089   4.3571   6.5404   6.6725

     occupation numbers 
     1.0000   1.0000   1.0000   1.0000   1.0000   1.0000   1.0000   1.0000
     0.0000   0.0000   0.0000   0.0000

          k = 0.0000 0.4811 0.0000     band energies (ev):

   -16.7689 -16.6993 -13.0330 -12.9839  -7.7385  -7.7238  -4.1841  -3.6153
     1.7583   2.3243   6.3474   6.4705

     occupation numbers 
     1.0000   1.0000   1.0000   1.0000   1.0000   1.0000   1.0000   1.0000
     0.0000   0.0000   0.0000   0.0000

          k = 0.0000-0.5774 0.0000     band energies (ev):

   -15.5330 -15.4676 -14.5032 -14.4492  -7.8975  -7.8826  -3.3279  -2.8225
     0.6474   1.2945   6.2722   6.3964

     occupation numbers 
     1.0000   1.0000   1.0000   1.0000   1.0000   1.0000   1.0000   1.0000
     0.0000   0.0000   0.0000   0.0000

          k = 0.0833 0.1443 0.0000     band energies (ev):

   -20.2015 -20.1130  -8.0336  -7.3248  -6.2340  -6.2168  -5.5934  -5.5807
     3.8520   4.3038   6.7942   7.4272

     occupation numbers 
     1.0000   1.0000   1.0000   1.0000   1.0000   1.0000   1.0000   1.0000
     0.0000   0.0000   0.0000   0.0000

          k = 0.0833 0.2406 0.0000     band energies (ev):

   -19.5607 -19.4760  -7.8818  -7.8569  -7.2646  -6.5764  -6.5529  -6.5367
     4.7253   7.0732   7.3350   7.5729

     occupation numbers 
     1.0000   1.0000   1.0000   1.0000   1.0000   1.0000   1.0000   1.0000
     0.0000   0.0000   0.0000   0.0000

          k = 0.0833 0.3368 0.0000     band energies (ev):

   -18.6107 -18.5314  -9.8907  -9.8565  -7.4141  -7.3967  -6.1461  -5.4911
     4.9358   5.3080   7.3489   7.4874

     occupation numbers 
     1.0000   1.0000   1.0000   1.0000   1.0000   1.0000   1.0000   1.0000
     0.0000   0.0000   0.0000   0.0000

          k = 0.0833 0.4330 0.0000     band energies (ev):

   -17.3709 -17.2983 -11.9591 -11.9151  -8.0341  -8.0157  -4.7608  -4.1587
     2.7189   3.2024   7.1186   7.2535

     occupation numbers 
     1.0000   1.0000   1.0000   1.0000   1.0000   1.0000   1.0000   1.0000
     0.0000   0.0000   0.0000   0.0000

          k = 0.0833 0.5292 0.0000     band energies (ev):

   -15.9190 -15.8533 -13.8559 -13.8036  -8.3556  -8.3367  -3.4394  -2.9140
     0.9357   1.5292   6.9753   7.1086

     occupation numbers 
     1.0000   1.0000   1.0000   1.0000   1.0000   1.0000   1.0000   1.0000
     0.0000   0.0000   0.0000   0.0000

          k = 0.1667 0.2887 0.0000     band energies (ev):

   -18.7684 -18.6882  -9.1772  -9.1471  -7.8579  -7.8360  -6.3255  -5.6642
     5.3837   5.7061   5.8247   6.2946

     occupation numbers 
     1.0000   1.0000   1.0000   1.0000   1.0000   1.0000   1.0000   1.0000
     0.0000   0.0000   0.0000   0.0000

          k = 0.1667 0.3849 0.0000     band energies (ev):

   -17.6784 -17.6043 -10.8557 -10.8176  -8.8833  -8.8576  -5.0688  -4.4496
     3.4424   3.8324   9.0637   9.2194

     occupation numbers 
     1.0000   1.0000   1.0000   1.0000   1.0000   1.0000   1.0000   1.0000
     0.0000   0.0000   0.0000   0.0000

          k = 0.1667 0.4811 0.0000     band energies (ev):

   -16.3269 -16.2598 -12.7168 -12.6697  -9.4476  -9.4203  -3.6344  -3.0779
     1.5258   2.0048   8.7946   8.9761

     occupation numbers 
     1.0000   1.0000   1.0000   1.0000   1.0000   1.0000   1.0000   1.0000
     0.0000   0.0000   0.0000   0.0000

          k = 0.1667 0.5774 0.0000     band energies (ev):

   -15.1206 -15.0581 -14.1149 -14.0623  -9.6290  -9.6013  -2.7315  -2.2349
     0.4476   0.9982   8.6998   8.8839

     occupation numbers 
     1.0000   1.0000   1.0000   1.0000   1.0000   1.0000   1.0000   1.0000
     0.0000   0.0000   0.0000   0.0000

          k = 0.2500 0.4330 0.0000     band energies (ev):

   -16.4718 -16.4042 -11.8715 -11.8286 -10.3145 -10.2817  -3.7213  -3.1523
     1.8361   2.2497  11.2894  11.6227

     occupation numbers 
     1.0000   1.0000   1.0000   1.0000   1.0000   1.0000   1.0000   1.0000
     0.0000   0.0000   0.0000   0.0000

          k = 0.2500 0.5292 0.0000     band energies (ev):

   -15.0785 -15.0178 -13.2554 -13.2055 -11.0053 -10.9696  -2.3280  -1.8223
     0.3167   0.7792  10.8774  11.2470

     occupation numbers 
     1.0000   1.0000   1.0000   1.0000   1.0000   1.0000   1.0000   0.0000
     0.0000   0.0000   0.0000   0.0000

          k = 0.3333 0.5774 0.0000     band energies (ev):

   -13.8903 -13.8896 -13.8359 -13.8352 -11.8677 -11.8287  -0.9730  -0.9721
    -0.5048  -0.5039  12.6106  12.7849

     occupation numbers 
     1.0000   1.0000   1.0000   1.0000   1.0000   1.0000   0.0000   0.0000
     0.0000   0.0000   0.0000   0.0000

          k =-0.0833 0.0481 0.0000     band energies (ev):

   -20.5239 -20.4335  -8.4238  -7.7052  -5.2427  -5.2300  -4.9489  -4.9386
     3.4203   3.8483   6.8203   7.1205

     occupation numbers 
     1.0000   1.0000   1.0000   1.0000   1.0000   1.0000   1.0000   1.0000
     0.0000   0.0000   0.0000   0.0000

          k =-0.1667 0.0962 0.0000     band energies (ev):

   -20.0408 -19.9533  -7.8402  -7.1362  -6.8104  -6.7899  -5.7103  -5.6985
     4.0592   4.5170   6.9730   7.1297

     occupation numbers 
     1.0000   1.0000   1.0000   1.0000   1.0000   1.0000   1.0000   1.0000
     0.0000   0.0000   0.0000   0.0000

          k =-0.2500 0.1443 0.0000     band energies (ev):

   -19.2423 -19.1594  -8.8380  -8.8081  -6.8879  -6.5626  -6.5493  -6.2101
     6.2229   6.5523   6.8753   6.9703

     occupation numbers 
     1.0000   1.0000   1.0000   1.0000   1.0000   1.0000   1.0000   1.0000
     0.0000   0.0000   0.0000   0.0000

          k =-0.3333 0.1925 0.0000     band energies (ev):

   -18.1410 -18.0643 -10.9811 -10.9415  -7.2771  -7.2628  -5.6159  -4.9805
     3.9094   4.3575   6.5483   6.6730

     occupation numbers 
     1.0000   1.0000   1.0000   1.0000   1.0000   1.0000   1.0000   1.0000
     0.0000   0.0000   0.0000   0.0000

          k =-0.4167 0.2406 0.0000     band energies (ev):

   -16.7689 -16.6993 -13.0325 -12.9835  -7.7392  -7.7244  -4.1845  -3.6158
     1.7592   2.3250   6.3471   6.4704

     occupation numbers 
     1.0000   1.0000   1.0000   1.0000   1.0000   1.0000   1.0000   1.0000
     0.0000   0.0000   0.0000   0.0000

          k = 0.5000-0.2887 0.0000     band energies (ev):

   -15.5334 -15.4680 -14.5023 -14.4484  -7.8981  -7.8832  -3.3286  -2.8233
     0.6486   1.2958   6.2718   6.3962

     occupation numbers 
     1.0000   1.0000   1.0000   1.0000   1.0000   1.0000   1.0000   1.0000
     0.0000   0.0000   0.0000   0.0000

          k = 0.1667-0.0000 0.0000     band energies (ev):

   -20.2015 -20.1130  -8.0338  -7.3248  -6.2329  -6.2157  -5.5946  -5.5819
     3.8029   4.2731   5.1116   7.0731

     occupation numbers 
     1.0000   1.0000   1.0000   1.0000   1.0000   1.0000   1.0000   1.0000
     0.0000   0.0000   0.0000   0.0000

          k =-0.1667 0.1925 0.0000     band energies (ev):

   -19.5607 -19.4760  -7.8813  -7.8564  -7.2646  -6.5764  -6.5535  -6.5373
     4.7402   7.0733   7.3496   7.6296

     occupation numbers 
     1.0000   1.0000   1.0000   1.0000   1.0000   1.0000   1.0000   1.0000
     0.0000   0.0000   0.0000   0.0000

          k = 0.2500 0.0481 0.0000     band energies (ev):

   -19.5607 -19.4760  -7.8808  -7.8559  -7.2646  -6.5765  -6.5541  -6.5378
     4.7289   7.0744   7.3460   7.6082

     occupation numbers 
     1.0000   1.0000   1.0000   1.0000   1.0000   1.0000   1.0000   1.0000
     0.0000   0.0000   0.0000   0.0000

          k =-0.2500 0.2406 0.0000     band energies (ev):

   -18.6106 -18.5314  -9.8902  -9.8560  -7.4147  -7.3973  -6.1462  -5.4912
     4.9360   5.3084   7.3791   7.4876

     occupation numbers 
     1.0000   1.0000   1.0000   1.0000   1.0000   1.0000   1.0000   1.0000
     0.0000   0.0000   0.0000   0.0000

          k = 0.3333 0.0962 0.0000     band energies (ev):

   -18.6106 -18.5314  -9.8900  -9.8558  -7.4149  -7.3975  -6.1462  -5.4912
     4.9364   5.3088   7.3747   7.4863

     occupation numbers 
     1.0000   1.0000   1.0000   1.0000   1.0000   1.0000   1.0000   1.0000
     0.0000   0.0000   0.0000   0.0000

          k =-0.3333 0.2887 0.0000     band energies (ev):

   -17.3709 -17.2983 -11.9586 -11.9147  -8.0347  -8.0163  -4.7610  -4.1589
     2.7195   3.2031   7.1177   7.2535

     occupation numbers 
     1.0000   1.0000   1.0000   1.0000   1.0000   1.0000   1.0000   1.0000
     0.0000   0.0000   0.0000   0.0000

          k = 0.4167 0.1443 0.0000     band energies (ev):

   -17.3709 -17.2983 -11.9585 -11.9146  -8.0348  -8.0163  -4.7611  -4.1590
     2.7198   3.2032   7.1180   7.2531

     occupation numbers 
     1.0000   1.0000   1.0000   1.0000   1.0000   1.0000   1.0000   1.0000
     0.0000   0.0000   0.0000   0.0000

          k =-0.4167 0.3368 0.0000     band energies (ev):

   -15.9192 -15.8534 -13.8554 -13.8030  -8.3562  -8.3373  -3.4400  -2.9146
     0.9367   1.5303   6.9747   7.1082

     occupation numbers 
     1.0000   1.0000   1.0000   1.0000   1.0000   1.0000   1.0000   1.0000
     0.0000   0.0000   0.0000   0.0000

          k = 0.5000 0.1925 0.0000     band energies (ev):

   -15.9192 -15.8534 -13.8554 -13.8030  -8.3562  -8.3373  -3.4400  -2.9146
     0.9368   1.5303   6.9746   7.1080

     occupation numbers 
     1.0000   1.0000   1.0000   1.0000   1.0000   1.0000   1.0000   1.0000
     0.0000   0.0000   0.0000   0.0000

          k = 0.3333-0.0000 0.0000     band energies (ev):

   -18.7683 -18.6882  -9.1764  -9.1463  -7.8589  -7.8370  -6.3256  -5.6643
     5.3841   5.7065   5.8261   6.3788

     occupation numbers 
     1.0000   1.0000   1.0000   1.0000   1.0000   1.0000   1.0000   1.0000
     0.0000   0.0000   0.0000   0.0000

          k =-0.2500 0.3368 0.0000     band energies (ev):

   -17.6784 -17.6043 -10.8554 -10.8173  -8.8837  -8.8580  -5.0689  -4.4497
     3.4425   3.8326   9.0592   9.2189

     occupation numbers 
     1.0000   1.0000   1.0000   1.0000   1.0000   1.0000   1.0000   1.0000
     0.0000   0.0000   0.0000   0.0000

          k = 0.4167 0.0481 0.0000     band energies (ev):

   -17.6783 -17.6042 -10.8550 -10.8169  -8.8842  -8.8584  -5.0690  -4.4499
     3.4430   3.8330   9.0726   9.1830

     occupation numbers 
     1.0000   1.0000   1.0000   1.0000   1.0000   1.0000   1.0000   1.0000
     0.0000   0.0000   0.0000   0.0000

          k =-0.3333 0.3849 0.0000     band energies (ev):

   -16.3269 -16.2598 -12.7164 -12.6693  -9.4481  -9.4209  -3.6347  -3.0782
     1.5263   2.0053   8.7943   8.9759

     occupation numbers 
     1.0000   1.0000   1.0000   1.0000   1.0000   1.0000   1.0000   1.0000
     0.0000   0.0000   0.0000   0.0000

          k = 0.5000 0.0962 0.0000     band energies (ev):

   -16.3269 -16.2598 -12.7163 -12.6692  -9.4482  -9.4210  -3.6349  -3.0783
     1.5267   2.0057   8.7927   8.9758

     occupation numbers 
     1.0000   1.0000   1.0000   1.0000   1.0000   1.0000   1.0000   1.0000
     0.0000   0.0000   0.0000   0.0000

          k =-0.4167 0.4330 0.0000     band energies (ev):

   -15.1210 -15.0585 -14.1140 -14.0614  -9.6296  -9.6019  -2.7322  -2.2356
     0.4488   0.9993   8.6991   8.8835

     occupation numbers 
     1.0000   1.0000   1.0000   1.0000   1.0000   1.0000   1.0000   1.0000
     0.0000   0.0000   0.0000   0.0000

          k = 0.5000 0.0000 0.0000     band energies (ev):

   -16.4718 -16.4042 -11.8709 -11.8279 -10.3152 -10.2824  -3.7216  -3.1526
     1.8367   2.2503  11.2919  11.6237

     occupation numbers 
     1.0000   1.0000   1.0000   1.0000   1.0000   1.0000   1.0000   1.0000
     0.0000   0.0000   0.0000   0.0000

          k =-0.3333 0.4811 0.0000     band energies (ev):

   -15.0786 -15.0179 -13.2550 -13.2050 -11.0057 -10.9699  -2.3283  -1.8227
     0.3172   0.7798  10.8587  11.2454

     occupation numbers 
     1.0000   1.0000   1.0000   1.0000   1.0000   1.0000   1.0000   0.0000
     0.0000   0.0000   0.0000   0.0000

          k = 0.5833 0.0481 0.0000     band energies (ev):

   -15.0786 -15.0179 -13.2547 -13.2048 -11.0059 -10.9702  -2.3286  -1.8229
     0.3175   0.7801  10.8610  11.2477

     occupation numbers 
     1.0000   1.0000   1.0000   1.0000   1.0000   1.0000   1.0000   0.0000
     0.0000   0.0000   0.0000   0.0000

 ------ SPIN DOWN ----------


          k = 0.0000 0.0000 0.0000     band energies (ev):

   -23.2294 -23.1504 -10.9517 -10.3355  -7.2799  -7.2783  -7.2714  -7.2697
     4.3979   4.3999   4.4234   4.4256

     occupation numbers 
     1.0000   1.0000   1.0000   1.0000   1.0000   1.0000   1.0000   1.0000
     0.0000   0.0000   0.0000   0.0000

          k = 0.0000 0.0962 0.0000     band energies (ev):

   -23.0690 -22.9908 -10.7590 -10.1470  -7.8927  -7.8815  -7.5973  -7.5882
     4.4944   4.5205   5.0653   5.0900

     occupation numbers 
     1.0000   1.0000   1.0000   1.0000   1.0000   1.0000   1.0000   1.0000
     0.0000   0.0000   0.0000   0.0000

          k = 0.0000 0.1925 0.0000     band energies (ev):

   -22.5894 -22.5137 -10.1865  -9.5878  -9.4486  -9.4307  -8.3515  -8.3412
     4.5305   4.5603   5.5392   5.7304

     occupation numbers 
     1.0000   1.0000   1.0000   1.0000   1.0000   1.0000   1.0000   1.0000
     0.0000   0.0000   0.0000   0.0000

          k = 0.0000 0.2887 0.0000     band energies (ev):

   -21.7969 -21.7251 -11.4609 -11.4348  -9.2540  -9.1975  -9.1858  -8.6793
     3.5509   3.8209   4.2244   4.3558

     occupation numbers 
     1.0000   1.0000   1.0000   1.0000   1.0000   1.0000   1.0000   1.0000
     0.0000   0.0000   0.0000   0.0000

          k = 0.0000 0.3849 0.0000     band energies (ev):

   -20.7042 -20.6377 -13.5876 -13.5532  -9.9074  -9.8948  -8.0139  -7.4768
     1.3363   1.7027   3.9885   4.1080

     occupation numbers 
     1.0000   1.0000   1.0000   1.0000   1.0000   1.0000   1.0000   1.0000
     0.0000   0.0000   0.0000   0.0000

          k = 0.0000 0.4811 0.0000     band energies (ev):

   -19.3448 -19.2843 -15.6214 -15.5788 -10.3669 -10.3540  -6.6317  -6.1522
    -0.7181  -0.2537   3.7934   3.8992

     occupation numbers 
     1.0000   1.0000   1.0000   1.0000   1.0000   1.0000   1.0000   1.0000
     0.0000   0.0000   0.0000   0.0000

          k = 0.0000-0.5774 0.0000     band energies (ev):

   -18.1344 -18.0775 -17.0642 -17.0176 -10.5250 -10.5119  -5.8219  -5.3943
    -1.7663  -1.2357   3.7145   3.8211

     occupation numbers 
     1.0000   1.0000   1.0000   1.0000   1.0000   1.0000   1.0000   1.0000
     0.0000   0.0000   0.0000   0.0000

          k = 0.0833 0.1443 0.0000     band energies (ev):

   -22.7490 -22.6724 -10.3763  -9.7731  -8.8776  -8.8624  -8.2346  -8.2235
     4.8267   4.8484   5.9785   6.1543

     occupation numbers 
     1.0000   1.0000   1.0000   1.0000   1.0000   1.0000   1.0000   1.0000
     0.0000   0.0000   0.0000   0.0000

          k = 0.0833 0.2406 0.0000     band energies (ev):

   -22.1129 -22.0396 -10.5144 -10.4926  -9.6226  -9.1840  -9.1706  -9.0376
     4.3466   4.5730   4.6002   5.0740

     occupation numbers 
     1.0000   1.0000   1.0000   1.0000   1.0000   1.0000   1.0000   1.0000
     0.0000   0.0000   0.0000   0.0000

          k = 0.0833 0.3368 0.0000     band energies (ev):

   -21.1701 -21.1015 -12.5074 -12.4776 -10.0392 -10.0240  -8.5296  -7.9752
     2.2997   2.6053   4.7716   4.9079

     occupation numbers 
     1.0000   1.0000   1.0000   1.0000   1.0000   1.0000   1.0000   1.0000
     0.0000   0.0000   0.0000   0.0000

          k = 0.0833 0.4330 0.0000     band energies (ev):

   -19.9406 -19.8777 -14.5585 -14.5203 -10.6558 -10.6397  -7.1840  -6.6760
     0.1786   0.5755   4.5591   4.6725

     occupation numbers 
     1.0000   1.0000   1.0000   1.0000   1.0000   1.0000   1.0000   1.0000
     0.0000   0.0000   0.0000   0.0000

          k = 0.0833 0.5292 0.0000     band energies (ev):

   -18.5061 -18.4490 -16.4343 -16.3890 -10.9757 -10.9592  -5.9193  -5.4758
    -1.5167  -1.0294   4.4139   4.5275

     occupation numbers 
     1.0000   1.0000   1.0000   1.0000   1.0000   1.0000   1.0000   1.0000
     0.0000   0.0000   0.0000   0.0000

          k = 0.1667 0.2887 0.0000     band energies (ev):

   -21.3264 -21.2571 -11.8074 -11.7811 -10.4694 -10.4505  -8.7043  -8.1439
     2.7041   2.9714   7.4031   7.6370

     occupation numbers 
     1.0000   1.0000   1.0000   1.0000   1.0000   1.0000   1.0000   1.0000
     0.0000   0.0000   0.0000   0.0000

          k = 0.1667 0.3849 0.0000     band energies (ev):

   -20.2453 -20.1811 -13.4722 -13.4390 -11.4864 -11.4642  -7.4796  -6.9568
     0.8296   1.1533   6.4508   6.6458

     occupation numbers 
     1.0000   1.0000   1.0000   1.0000   1.0000   1.0000   1.0000   1.0000
     0.0000   0.0000   0.0000   0.0000

          k = 0.1667 0.4811 0.0000     band energies (ev):

   -18.9065 -18.8483 -15.3136 -15.2727 -12.0495 -12.0259  -6.0924  -5.6235
    -1.0101  -0.6137   6.2369   6.3863

     occupation numbers 
     1.0000   1.0000   1.0000   1.0000   1.0000   1.0000   1.0000   1.0000
     0.0000   0.0000   0.0000   0.0000

          k = 0.1667 0.5774 0.0000     band energies (ev):

   -17.7241 -17.6697 -16.6852 -16.6397 -12.2307 -12.2068  -5.2340  -4.8142
    -2.0316  -1.5780   6.1422   6.2937

     occupation numbers 
     1.0000   1.0000   1.0000   1.0000   1.0000   1.0000   1.0000   1.0000
     0.0000   0.0000   0.0000   0.0000

          k = 0.2500 0.4330 0.0000     band energies (ev):

   -19.0494 -18.9908 -14.4903 -14.4528 -12.8935 -12.8653  -6.1705  -5.6913
    -0.7480  -0.4019   8.7168   8.9612

     occupation numbers 
     1.0000   1.0000   1.0000   1.0000   1.0000   1.0000   1.0000   1.0000
     0.0000   0.0000   0.0000   0.0000

          k = 0.2500 0.5292 0.0000     band energies (ev):

   -17.6727 -17.6199 -15.8562 -15.8127 -13.5797 -13.5488  -4.8258  -4.3997
    -2.2236  -1.8366   8.3697   8.6642

     occupation numbers 
     1.0000   1.0000   1.0000   1.0000   1.0000   1.0000   1.0000   1.0000
     1.0000   0.0000   0.0000   0.0000

          k = 0.3333 0.5774 0.0000     band energies (ev):

   -16.4998 -16.4993 -16.4524 -16.4519 -14.4151 -14.3817  -3.5027  -3.5020
    -3.1083  -3.1077  10.1468  10.3903

     occupation numbers 
     1.0000   1.0000   1.0000   1.0000   1.0000   1.0000   1.0000   1.0000
     1.0000   1.0000   0.0000   0.0000

          k =-0.0833 0.0481 0.0000     band energies (ev):

   -23.0690 -22.9908 -10.7590 -10.1471  -7.8916  -7.8804  -7.5984  -7.5893
     4.4955   4.5198   5.0663   5.0908

     occupation numbers 
     1.0000   1.0000   1.0000   1.0000   1.0000   1.0000   1.0000   1.0000
     0.0000   0.0000   0.0000   0.0000

          k =-0.1667 0.0962 0.0000     band energies (ev):

   -22.5894 -22.5137 -10.1865  -9.5879  -9.4477  -9.4299  -8.3525  -8.3421
     4.5341   4.5609   5.5426   5.7203

     occupation numbers 
     1.0000   1.0000   1.0000   1.0000   1.0000   1.0000   1.0000   1.0000
     0.0000   0.0000   0.0000   0.0000

          k =-0.2500 0.1443 0.0000     band energies (ev):

   -21.7969 -21.7251 -11.4603 -11.4342  -9.2541  -9.1983  -9.1866  -8.6793
     3.5512   3.8216   4.2247   4.3546

     occupation numbers 
     1.0000   1.0000   1.0000   1.0000   1.0000   1.0000   1.0000   1.0000
     0.0000   0.0000   0.0000   0.0000

          k =-0.3333 0.1925 0.0000     band energies (ev):

   -20.7042 -20.6377 -13.5871 -13.5526  -9.9080  -9.8955  -8.0140  -7.4770
     1.3366   1.7032   3.9882   4.0953

     occupation numbers 
     1.0000   1.0000   1.0000   1.0000   1.0000   1.0000   1.0000   1.0000
     0.0000   0.0000   0.0000   0.0000

          k =-0.4167 0.2406 0.0000     band energies (ev):

   -19.3447 -19.2843 -15.6210 -15.5784 -10.3675 -10.3546  -6.6320  -6.1526
    -0.7176  -0.2530   3.7936   3.8986

     occupation numbers 
     1.0000   1.0000   1.0000   1.0000   1.0000   1.0000   1.0000   1.0000
     0.0000   0.0000   0.0000   0.0000

          k = 0.5000-0.2887 0.0000     band energies (ev):

   -18.1347 -18.0777 -17.0636 -17.0170 -10.5255 -10.5125  -5.8225  -5.3949
    -1.7655  -1.2348   3.7143   3.8210

     occupation numbers 
     1.0000   1.0000   1.0000   1.0000   1.0000   1.0000   1.0000   1.0000
     0.0000   0.0000   0.0000   0.0000

          k = 0.1667-0.0000 0.0000     band energies (ev):

   -22.7490 -22.6724 -10.3763  -9.7730  -8.8766  -8.8614  -8.2357  -8.2246
     4.8253   4.8449   5.9151   6.0589

     occupation numbers 
     1.0000   1.0000   1.0000   1.0000   1.0000   1.0000   1.0000   1.0000
     0.0000   0.0000   0.0000   0.0000

          k =-0.1667 0.1925 0.0000     band energies (ev):

   -22.1128 -22.0396 -10.5140 -10.4922  -9.6226  -9.1846  -9.1711  -9.0376
     4.3469   4.5731   4.5859   5.0770

     occupation numbers 
     1.0000   1.0000   1.0000   1.0000   1.0000   1.0000   1.0000   1.0000
     0.0000   0.0000   0.0000   0.0000

          k = 0.2500 0.0481 0.0000     band energies (ev):

   -22.1128 -22.0396 -10.5135 -10.4917  -9.6226  -9.1850  -9.1716  -9.0377
     4.3470   4.5736   4.6006   5.0734

     occupation numbers 
     1.0000   1.0000   1.0000   1.0000   1.0000   1.0000   1.0000   1.0000
     0.0000   0.0000   0.0000   0.0000

          k =-0.2500 0.2406 0.0000     band energies (ev):

   -21.1701 -21.1014 -12.5069 -12.4771 -10.0398 -10.0246  -8.5297  -7.9752
     2.3000   2.6056   4.7734   4.9068

     occupation numbers 
     1.0000   1.0000   1.0000   1.0000   1.0000   1.0000   1.0000   1.0000
     0.0000   0.0000   0.0000   0.0000

          k = 0.3333 0.0962 0.0000     band energies (ev):

   -21.1701 -21.1014 -12.5068 -12.4769 -10.0400 -10.0248  -8.5297  -7.9753
     2.3002   2.6057   4.7719   4.9068

     occupation numbers 
     1.0000   1.0000   1.0000   1.0000   1.0000   1.0000   1.0000   1.0000
     0.0000   0.0000   0.0000   0.0000

          k =-0.3333 0.2887 0.0000     band energies (ev):

   -19.9406 -19.8777 -14.5581 -14.5199 -10.6563 -10.6403  -7.1841  -6.6762
     0.1791   0.5759   4.5596   4.6723

     occupation numbers 
     1.0000   1.0000   1.0000   1.0000   1.0000   1.0000   1.0000   1.0000
     0.0000   0.0000   0.0000   0.0000

          k = 0.4167 0.1443 0.0000     band energies (ev):

   -19.9406 -19.8776 -14.5580 -14.5198 -10.6564 -10.6404  -7.1842  -6.6762
     0.1792   0.5760   4.5592   4.6724

     occupation numbers 
     1.0000   1.0000   1.0000   1.0000   1.0000   1.0000   1.0000   1.0000
     0.0000   0.0000   0.0000   0.0000

          k =-0.4167 0.3368 0.0000     band energies (ev):

   -18.5062 -18.4490 -16.4338 -16.3886 -10.9763 -10.9598  -5.9197  -5.4762
    -1.5160  -1.0286   4.4137   4.5301

     occupation numbers 
     1.0000   1.0000   1.0000   1.0000   1.0000   1.0000   1.0000   1.0000
     0.0000   0.0000   0.0000   0.0000

          k = 0.5000 0.1925 0.0000     band energies (ev):

   -18.5062 -18.4490 -16.4338 -16.3885 -10.9763 -10.9598  -5.9197  -5.4763
    -1.5160  -1.0285   4.4136   4.5271

     occupation numbers 
     1.0000   1.0000   1.0000   1.0000   1.0000   1.0000   1.0000   1.0000
     0.0000   0.0000   0.0000   0.0000

          k = 0.3333-0.0000 0.0000     band energies (ev):

   -21.3264 -21.2571 -11.8067 -11.7804 -10.4700 -10.4513  -8.7044  -8.1440
     2.7044   2.9717   7.5730   7.6658

     occupation numbers 
     1.0000   1.0000   1.0000   1.0000   1.0000   1.0000   1.0000   1.0000
     0.0000   0.0000   0.0000   0.0000

          k =-0.2500 0.3368 0.0000     band energies (ev):

   -20.2453 -20.1811 -13.4719 -13.4387 -11.4868 -11.4645  -7.4796  -6.9569
     0.8298   1.1535   6.3437   6.6452

     occupation numbers 
     1.0000   1.0000   1.0000   1.0000   1.0000   1.0000   1.0000   1.0000
     0.0000   0.0000   0.0000   0.0000

          k = 0.4167 0.0481 0.0000     band energies (ev):

   -20.2453 -20.1810 -13.4716 -13.4384 -11.4872 -11.4649  -7.4797  -6.9570
     0.8300   1.1538   6.4511   6.6418

     occupation numbers 
     1.0000   1.0000   1.0000   1.0000   1.0000   1.0000   1.0000   1.0000
     0.0000   0.0000   0.0000   0.0000

          k =-0.3333 0.3849 0.0000     band energies (ev):

   -18.9065 -18.8483 -15.3132 -15.2723 -12.0500 -12.0264  -6.0926  -5.6238
    -1.0097  -0.6133   6.2354   6.3871

     occupation numbers 
     1.0000   1.0000   1.0000   1.0000   1.0000   1.0000   1.0000   1.0000
     0.0000   0.0000   0.0000   0.0000

          k = 0.5000 0.0962 0.0000     band energies (ev):

   -18.9065 -18.8483 -15.3131 -15.2722 -12.0501 -12.0265  -6.0927  -5.6239
    -1.0095  -0.6130   6.2355   6.3863

     occupation numbers 
     1.0000   1.0000   1.0000   1.0000   1.0000   1.0000   1.0000   1.0000
     0.0000   0.0000   0.0000   0.0000

          k =-0.4167 0.4330 0.0000     band energies (ev):

   -17.7244 -17.6700 -16.6845 -16.6390 -12.2312 -12.2073  -5.2345  -4.8148
    -2.0309  -1.5772   6.1419   6.2934

     occupation numbers 
     1.0000   1.0000   1.0000   1.0000   1.0000   1.0000   1.0000   1.0000
     0.0000   0.0000   0.0000   0.0000

          k = 0.5000 0.0000 0.0000     band energies (ev):

   -19.0494 -18.9908 -14.4898 -14.4522 -12.8941 -12.8659  -6.1707  -5.6915
    -0.7476  -0.4014   8.7179   8.9632

     occupation numbers 
     1.0000   1.0000   1.0000   1.0000   1.0000   1.0000   1.0000   1.0000
     0.0000   0.0000   0.0000   0.0000

          k =-0.3333 0.4811 0.0000     band energies (ev):

   -17.6728 -17.6200 -15.8558 -15.8124 -13.5800 -13.5492  -4.8261  -4.4000
    -2.2233  -1.8363   8.3694   8.6608

     occupation numbers 
     1.0000   1.0000   1.0000   1.0000   1.0000   1.0000   1.0000   1.0000
     1.0000   0.0000   0.0000   0.0000

          k = 0.5833 0.0481 0.0000     band energies (ev):

   -17.6728 -17.6200 -15.8557 -15.8122 -13.5802 -13.5493  -4.8263  -4.4003
    -2.2230  -1.8360   8.3696   8.6614

     occupation numbers 
     1.0000   1.0000   1.0000   1.0000   1.0000   1.0000   1.0000   1.0000
     1.0000   0.0000   0.0000   0.0000

     the Fermi energy is    -2.1268 ev

!    total energy              =     -45.52695960 Ry
     Harris-Foulkes estimate   =     -45.37635973 Ry
     estimated scf accuracy    <       0.21673205 Ry

     The total energy is the sum of the following terms:

     one-electron contribution =    -521.29301950 Ry
     hartree contribution      =     264.00695208 Ry
     xc contribution           =     -14.09811801 Ry
     ewald contribution        =     225.00644935 Ry
     scf correction            =       0.85077648 Ry
     smearing contrib. (-TS)   =       0.00000000 Ry

     total magnetization       =    -0.22 Bohr mag/cell
     absolute magnetization    =     0.28 Bohr mag/cell

     iteration #  3     ecut=    40.00 Ry     beta=0.30
     Davidson diagonalization with overlap
     ethr =  1.35E-03,  avg # of iterations =  4.3

     negative rho (up, down):  4.876E-05 2.767E-05

     Magnetic moment per site:
     atom:    1    charge:    1.7092    magn:   -0.0655    constr:    0.0000
     atom:    2    charge:    1.7092    magn:   -0.0655    constr:    0.0000
     atom:    3    charge:    1.7097    magn:   -0.0655    constr:    0.0000
     atom:    4    charge:    1.7097    magn:   -0.0655    constr:    0.0000

     total cpu time spent up to now is       20.7 secs

 ------ SPIN UP ------------


          k = 0.0000 0.0000 0.0000     band energies (ev):

   -19.2663 -19.1579  -7.8014  -6.9963  -2.7640  -2.7623  -2.7519  -2.7502
     2.8872   3.2370   3.7695   5.0659

     occupation numbers 
     1.0000   1.0000   1.0000   1.0000   1.0000   1.0000   1.0000   1.0000
     0.0000   0.0000   0.0000   0.0000

          k = 0.0000 0.0962 0.0000     band energies (ev):

   -19.1017 -18.9944  -7.6024  -6.8022  -3.4136  -3.3976  -3.1006  -3.0877
     3.1089   3.4967   3.9809   5.5824

     occupation numbers 
     1.0000   1.0000   1.0000   1.0000   1.0000   1.0000   1.0000   1.0000
     0.0000   0.0000   0.0000   0.0000

          k = 0.0000 0.1925 0.0000     band energies (ev):

   -18.6097 -18.5057  -7.0102  -6.2249  -5.0507  -5.0253  -3.8929  -3.8781
     3.7805   4.1312   4.6243   5.8910

     occupation numbers 
     1.0000   1.0000   1.0000   1.0000   1.0000   1.0000   1.0000   1.0000
     0.0000   0.0000   0.0000   0.0000

          k = 0.0000 0.2887 0.0000     band energies (ev):

   -17.7961 -17.6975  -7.1503  -7.1138  -6.0423  -5.2846  -4.7719  -4.7555
     4.9349   5.2855   7.2893   7.6999

     occupation numbers 
     1.0000   1.0000   1.0000   1.0000   1.0000   1.0000   1.0000   1.0000
     0.0000   0.0000   0.0000   0.0000

          k = 0.0000 0.3849 0.0000     band energies (ev):

   -16.6731 -16.5816  -9.3569  -9.3088  -5.5044  -5.4868  -4.7455  -4.0318
     4.9255   5.4407   7.8311   8.0144

     occupation numbers 
     1.0000   1.0000   1.0000   1.0000   1.0000   1.0000   1.0000   1.0000
     0.0000   0.0000   0.0000   0.0000

          k = 0.0000 0.4811 0.0000     band energies (ev):

   -15.2718 -15.1885 -11.4624 -11.4032  -5.9766  -5.9585  -3.2749  -2.6320
     2.6953   3.3434   7.6478   7.7946

     occupation numbers 
     1.0000   1.0000   1.0000   1.0000   1.0000   1.0000   1.0000   1.0000
     0.0000   0.0000   0.0000   0.0000

          k = 0.0000-0.5774 0.0000     band energies (ev):

   -13.9989 -13.9203 -12.9779 -12.9131  -6.1388  -6.1204  -2.3807  -1.8081
     1.5326   2.2716   7.5671   7.7132

     occupation numbers 
     1.0000   1.0000   1.0000   1.0000   1.0000   1.0000   1.0000   1.0000
     0.0000   0.0000   0.0000   0.0000

          k = 0.0833 0.1443 0.0000     band energies (ev):

   -18.7734 -18.6683  -7.2067  -6.4164  -4.4453  -4.4240  -3.7798  -3.7640
     3.5550   3.9070   4.4042   5.6824

     occupation numbers 
     1.0000   1.0000   1.0000   1.0000   1.0000   1.0000   1.0000   1.0000
[...]
     0.0000   0.0000   0.0000   0.0000

          k = 0.0000-0.5774 0.0000 (  3052 PWs)   bands (ev):

   -14.7767 -14.7014 -13.7371 -13.6755  -6.9317  -6.9145  -3.1153  -2.5729
     0.8416   1.5335   6.8129   6.9517

     occupation numbers 
     1.0000   1.0000   1.0000   1.0000   1.0000   1.0000   1.0000   1.0000
     0.0000   0.0000   0.0000   0.0000

          k = 0.0833 0.1443 0.0000 (  3051 PWs)   bands (ev):

   -19.5258 -19.4254  -7.8740  -7.1240  -5.2447  -5.2245  -4.5782  -4.5633
     3.5522   3.9613   4.6694   5.8842

     occupation numbers 
     1.0000   1.0000   1.0000   1.0000   1.0000   1.0000   1.0000   1.0000
     0.0000   0.0000   0.0000   0.0000

          k = 0.0833 0.2406 0.0000 (  3045 PWs)   bands (ev):

   -18.8752 -18.7790  -7.0995  -6.9490  -6.9201  -6.3697  -5.5721  -5.5539
     4.4333   4.8507   5.5710   6.7763

     occupation numbers 
     1.0000   1.0000   1.0000   1.0000   1.0000   1.0000   1.0000   1.0000
     0.0000   0.0000   0.0000   0.0000

          k = 0.0833 0.3368 0.0000 (  3033 PWs)   bands (ev):

   -17.9102 -17.8199  -9.0170  -8.9772  -6.4550  -6.4347  -5.9718  -5.2762
     5.2131   5.5994   5.7484   6.2134

     occupation numbers 
     1.0000   1.0000   1.0000   1.0000   1.0000   1.0000   1.0000   1.0000
     0.0000   0.0000   0.0000   0.0000

          k = 0.0833 0.4330 0.0000 (  3041 PWs)   bands (ev):

   -16.6499 -16.5669 -11.1361 -11.0853  -7.0875  -7.0660  -4.5727  -3.9306
     2.9583   3.4802   7.4264   7.7797

     occupation numbers 
     1.0000   1.0000   1.0000   1.0000   1.0000   1.0000   1.0000   1.0000
     0.0000   0.0000   0.0000   0.0000

          k = 0.0833 0.5292 0.0000 (  3043 PWs)   bands (ev):

   -15.1716 -15.0961 -13.0744 -13.0144  -7.4147  -7.3927  -3.2316  -2.6682
     1.1423   1.7790   7.5389   7.6893

     occupation numbers 
     1.0000   1.0000   1.0000   1.0000   1.0000   1.0000   1.0000   1.0000
     0.0000   0.0000   0.0000   0.0000

          k = 0.1667 0.2887 0.0000 (  3039 PWs)   bands (ev):

   -18.0704 -17.9791  -8.2756  -8.2406  -6.9301  -6.9044  -6.1529  -5.4508
     5.5320   5.6831   5.9574   6.0350

     occupation numbers 
     1.0000   1.0000   1.0000   1.0000   1.0000   1.0000   1.0000   1.0000
     0.0000   0.0000   0.0000   0.0000

          k = 0.1667 0.3849 0.0000 (  3045 PWs)   bands (ev):

   -16.9624 -16.8778  -9.9997  -9.9554  -7.9830  -7.9530  -4.8848  -4.2255
     3.7099   4.1335   7.0548   7.4908

     occupation numbers 
     1.0000   1.0000   1.0000   1.0000   1.0000   1.0000   1.0000   1.0000
     0.0000   0.0000   0.0000   0.0000

          k = 0.1667 0.4811 0.0000 (  3041 PWs)   bands (ev):

   -15.5870 -15.5102 -11.9074 -11.8530  -8.5571  -8.5254  -3.4338  -2.8383
     1.7609   2.2784   8.9483   9.4329

     occupation numbers 
     1.0000   1.0000   1.0000   1.0000   1.0000   1.0000   1.0000   1.0000
     0.0000   0.0000   0.0000   0.0000

          k = 0.1667 0.5774 0.0000 (  3008 PWs)   bands (ev):

   -14.3550 -14.2830 -13.3390 -13.2788  -8.7413  -8.7092  -2.5151  -1.9817
     0.6613   1.2538   9.2964   9.5091

     occupation numbers 
     1.0000   1.0000   1.0000   1.0000   1.0000   1.0000   1.0000   1.0000
     0.0000   0.0000   0.0000   0.0000

          k = 0.2500 0.4330 0.0000 (  3033 PWs)   bands (ev):

   -15.7345 -15.6571 -11.0337 -10.9839  -9.4624  -9.4246  -3.5235  -2.9153
     2.0904   2.5381   8.7611   9.1610

     occupation numbers 
     1.0000   1.0000   1.0000   1.0000   1.0000   1.0000   1.0000   1.0000
     0.0000   0.0000   0.0000   0.0000

          k = 0.2500 0.5292 0.0000 (  3013 PWs)   bands (ev):

   -14.3133 -14.2434 -12.4532 -12.3956 -10.1683 -10.1271  -2.1124  -1.5693
     0.5516   1.0508   9.7508  10.7432

     occupation numbers 
     1.0000   1.0000   1.0000   1.0000   1.0000   1.0000   1.0000   1.0000
     0.0000   0.0000   0.0000   0.0000

          k = 0.3333 0.5774 0.0000 (  3027 PWs)   bands (ev):

   -13.0973 -13.0967 -13.0344 -13.0339 -11.0612 -11.0166  -0.7438  -0.7431
    -0.2396  -0.2389   9.3099  10.9899

     occupation numbers 
     1.0000   1.0000   1.0000   1.0000   1.0000   1.0000   1.0000   1.0000
     0.0000   0.0000   0.0000   0.0000

          k =-0.0833 0.0481 0.0000 (  3052 PWs)   bands (ev):

   -19.8530 -19.7505  -8.2667  -7.5070  -4.2143  -4.1994  -3.9041  -3.8921
     3.1110   3.5151   4.2183   5.4364

     occupation numbers 
     1.0000   1.0000   1.0000   1.0000   1.0000   1.0000   1.0000   1.0000
     0.0000   0.0000   0.0000   0.0000

          k =-0.1667 0.0962 0.0000 (  3050 PWs)   bands (ev):

   -19.3626 -19.2633  -7.6791  -6.9340  -5.8461  -5.8221  -4.6930  -4.6793
     3.7723   4.1838   4.8945   6.1071

     occupation numbers 
     1.0000   1.0000   1.0000   1.0000   1.0000   1.0000   1.0000   1.0000
     0.0000   0.0000   0.0000   0.0000

          k =-0.2500 0.1443 0.0000 (  3048 PWs)   bands (ev):

   -18.5518 -18.4576  -7.9386  -7.9038  -6.7196  -6.0011  -5.5691  -5.5537
     4.8702   5.2872   6.0173   6.5064

     occupation numbers 
     1.0000   1.0000   1.0000   1.0000   1.0000   1.0000   1.0000   1.0000
     0.0000   0.0000   0.0000   0.0000

          k =-0.3333 0.1925 0.0000 (  3042 PWs)   bands (ev):

   -17.4329 -17.3454 -10.1373 -10.0914  -6.2995  -6.2830  -5.4365  -4.7607
     4.1627   4.6442   6.3828   6.8596

     occupation numbers 
     1.0000   1.0000   1.0000   1.0000   1.0000   1.0000   1.0000   1.0000
     0.0000   0.0000   0.0000   0.0000

          k =-0.4167 0.2406 0.0000 (  3054 PWs)   bands (ev):

   -16.0375 -15.9578 -12.2343 -12.1778  -6.7705  -6.7535  -3.9879  -3.3799
     1.9758   2.5833   6.8893   7.0314

     occupation numbers 
     1.0000   1.0000   1.0000   1.0000   1.0000   1.0000   1.0000   1.0000
     0.0000   0.0000   0.0000   0.0000

          k = 0.5000-0.2887 0.0000 (  3052 PWs)   bands (ev):

   -14.7770 -14.7017 -13.7364 -13.6748  -6.9323  -6.9150  -3.1158  -2.5735
     0.8424   1.5345   6.8126   6.9515

     occupation numbers 
     1.0000   1.0000   1.0000   1.0000   1.0000   1.0000   1.0000   1.0000
     0.0000   0.0000   0.0000   0.0000

          k = 0.1667-0.0000 0.0000 (  3051 PWs)   bands (ev):

   -19.5258 -19.4254  -7.8740  -7.1240  -5.2437  -5.2235  -4.5793  -4.5644
     3.5522   3.9613   4.6694   5.8842

     occupation numbers 
     1.0000   1.0000   1.0000   1.0000   1.0000   1.0000   1.0000   1.0000
     0.0000   0.0000   0.0000   0.0000

          k =-0.1667 0.1925 0.0000 (  3045 PWs)   bands (ev):

   -18.8752 -18.7789  -7.0995  -6.9486  -6.9196  -6.3698  -5.5726  -5.5544
     4.4333   4.8507   5.5710   6.7763

     occupation numbers 
     1.0000   1.0000   1.0000   1.0000   1.0000   1.0000   1.0000   1.0000
     0.0000   0.0000   0.0000   0.0000

          k = 0.2500 0.0481 0.0000 (  3045 PWs)   bands (ev):

   -18.8752 -18.7789  -7.0995  -6.9482  -6.9192  -6.3698  -5.5731  -5.5549
     4.4333   4.8507   5.5710   6.7763

     occupation numbers 
     1.0000   1.0000   1.0000   1.0000   1.0000   1.0000   1.0000   1.0000
     0.0000   0.0000   0.0000   0.0000

          k =-0.2500 0.2406 0.0000 (  3033 PWs)   bands (ev):

   -17.9102 -17.8199  -9.0166  -8.9768  -6.4556  -6.4353  -5.9718  -5.2763
     5.2133   5.5996   5.7484   6.2135

     occupation numbers 
     1.0000   1.0000   1.0000   1.0000   1.0000   1.0000   1.0000   1.0000
     0.0000   0.0000   0.0000   0.0000

          k = 0.3333 0.0962 0.0000 (  3033 PWs)   bands (ev):

   -17.9102 -17.8199  -9.0164  -8.9766  -6.4558  -6.4354  -5.9719  -5.2763
     5.2135   5.5998   5.7484   6.2135

     occupation numbers 
     1.0000   1.0000   1.0000   1.0000   1.0000   1.0000   1.0000   1.0000
     0.0000   0.0000   0.0000   0.0000

          k =-0.3333 0.2887 0.0000 (  3041 PWs)   bands (ev):

   -16.6499 -16.5669 -11.1357 -11.0849  -7.0880  -7.0665  -4.5728  -3.9308
     2.9588   3.4807   7.4264   7.7794

     occupation numbers 
     1.0000   1.0000   1.0000   1.0000   1.0000   1.0000   1.0000   1.0000
     0.0000   0.0000   0.0000   0.0000

          k = 0.4167 0.1443 0.0000 (  3041 PWs)   bands (ev):

   -16.6499 -16.5669 -11.1357 -11.0849  -7.0881  -7.0666  -4.5729  -3.9308
     2.9589   3.4809   7.4263   7.7794

     occupation numbers 
     1.0000   1.0000   1.0000   1.0000   1.0000   1.0000   1.0000   1.0000
     0.0000   0.0000   0.0000   0.0000

          k =-0.4167 0.3368 0.0000 (  3043 PWs)   bands (ev):

   -15.1717 -15.0962 -13.0740 -13.0139  -7.4152  -7.3932  -3.2320  -2.6687
     1.1431   1.7798   7.5386   7.6890

     occupation numbers 
     1.0000   1.0000   1.0000   1.0000   1.0000   1.0000   1.0000   1.0000
     0.0000   0.0000   0.0000   0.0000

          k = 0.5000 0.1925 0.0000 (  3043 PWs)   bands (ev):

   -15.1717 -15.0962 -13.0740 -13.0139  -7.4152  -7.3932  -3.2321  -2.6687
     1.1432   1.7799   7.5386   7.6890

     occupation numbers 
     1.0000   1.0000   1.0000   1.0000   1.0000   1.0000   1.0000   1.0000
     0.0000   0.0000   0.0000   0.0000

          k = 0.3333-0.0000 0.0000 (  3039 PWs)   bands (ev):

   -18.0704 -17.9791  -8.2749  -8.2398  -6.9310  -6.9053  -6.1529  -5.4509
     5.5319   5.6835   5.9574   6.0353

     occupation numbers 
     1.0000   1.0000   1.0000   1.0000   1.0000   1.0000   1.0000   1.0000
     0.0000   0.0000   0.0000   0.0000

          k =-0.2500 0.3368 0.0000 (  3045 PWs)   bands (ev):

   -16.9624 -16.8778  -9.9994  -9.9551  -7.9833  -7.9534  -4.8849  -4.2255
     3.7101   4.1337   7.0549   7.4908

     occupation numbers 
     1.0000   1.0000   1.0000   1.0000   1.0000   1.0000   1.0000   1.0000
     0.0000   0.0000   0.0000   0.0000

          k = 0.4167 0.0481 0.0000 (  3045 PWs)   bands (ev):

   -16.9624 -16.8778  -9.9991  -9.9548  -7.9837  -7.9537  -4.8850  -4.2257
     3.7104   4.1340   7.0549   7.4908

     occupation numbers 
     1.0000   1.0000   1.0000   1.0000   1.0000   1.0000   1.0000   1.0000
     0.0000   0.0000   0.0000   0.0000

          k =-0.3333 0.3849 0.0000 (  3041 PWs)   bands (ev):

   -15.5870 -15.5102 -11.9070 -11.8527  -8.5575  -8.5259  -3.4340  -2.8385
     1.7613   2.2789   8.9484   9.4326

     occupation numbers 
     1.0000   1.0000   1.0000   1.0000   1.0000   1.0000   1.0000   1.0000
     0.0000   0.0000   0.0000   0.0000

          k = 0.5000 0.0962 0.0000 (  3041 PWs)   bands (ev):

   -15.5870 -15.5102 -11.9069 -11.8526  -8.5576  -8.5260  -3.4341  -2.8386
     1.7615   2.2791   8.9483   9.4325

     occupation numbers 
     1.0000   1.0000   1.0000   1.0000   1.0000   1.0000   1.0000   1.0000
     0.0000   0.0000   0.0000   0.0000

          k =-0.4167 0.4330 0.0000 (  3008 PWs)   bands (ev):

   -14.3553 -14.2833 -13.3383 -13.2781  -8.7418  -8.7096  -2.5157  -1.9823
     0.6621   1.2547   9.2961   9.5089

     occupation numbers 
     1.0000   1.0000   1.0000   1.0000   1.0000   1.0000   1.0000   1.0000
     0.0000   0.0000   0.0000   0.0000

          k = 0.5000 0.0000 0.0000 (  3033 PWs)   bands (ev):

   -15.7345 -15.6571 -11.0332 -10.9833  -9.4630  -9.4252  -3.5238  -2.9155
     2.0909   2.5386   8.7611   9.1610

     occupation numbers 
     1.0000   1.0000   1.0000   1.0000   1.0000   1.0000   1.0000   1.0000
     0.0000   0.0000   0.0000   0.0000

          k =-0.3333 0.4811 0.0000 (  3013 PWs)   bands (ev):

   -14.3134 -14.2435 -12.4528 -12.3952 -10.1686 -10.1274  -2.1126  -1.5696
     0.5520   1.0512   9.7507  10.7433

     occupation numbers 
     1.0000   1.0000   1.0000   1.0000   1.0000   1.0000   1.0000   1.0000
     0.0000   0.0000   0.0000   0.0000

          k = 0.5833 0.0481 0.0000 (  3013 PWs)   bands (ev):

   -14.3134 -14.2436 -12.4526 -12.3950 -10.1688 -10.1276  -2.1129  -1.5698
     0.5523   1.0515   9.7506  10.7431

     occupation numbers 
     1.0000   1.0000   1.0000   1.0000   1.0000   1.0000   1.0000   1.0000
     0.0000   0.0000   0.0000   0.0000

     the Fermi energy is    -0.6371 ev

!    total energy              =     -45.57866113 Ry
     Harris-Foulkes estimate   =     -45.57866112 Ry
     estimated scf accuracy    <          3.1E-12 Ry

     The total energy is the sum of the following terms:

     one-electron contribution =    -520.05710823 Ry
     hartree contribution      =     263.50241040 Ry
     xc contribution           =     -14.03041264 Ry
     ewald contribution        =     225.00644935 Ry
     smearing contrib. (-TS)   =       0.00000000 Ry

     total magnetization       =     0.00 Bohr mag/cell
     absolute magnetization    =     0.00 Bohr mag/cell

     convergence has been achieved in  13 iterations

     Forces acting on atoms (Ry/au):

     atom    1 type  1   force =     0.00000000   -0.00011459   -0.00187052
     atom    2 type  1   force =     0.00000000    0.00011459   -0.00187052
     atom    3 type  1   force =     0.00000000   -0.00011461    0.00187052
     atom    4 type  1   force =     0.00000000    0.00011462    0.00187052
     The non-local contrib.  to forces
     atom    1 type  1   force =     0.00000000   -0.00003902   -0.00119483
     atom    2 type  1   force =     0.00000000    0.00003903   -0.00119483
     atom    3 type  1   force =     0.00000000   -0.00003904    0.00118426
     atom    4 type  1   force =     0.00000000    0.00003904    0.00118426
     The ionic contribution  to forces
     atom    1 type  1   force =     0.00000000   -0.00037336  -13.84074850
     atom    2 type  1   force =     0.00000000    0.00037336  -13.84074850
     atom    3 type  1   force =     0.00000000   -0.00037336   13.84074850
     atom    4 type  1   force =    -0.00000000    0.00037336   13.84074850
     The local contribution  to forces
     atom    1 type  1   force =     0.00000000    0.00029789   13.84006893
     atom    2 type  1   force =    -0.00000000   -0.00029788   13.84006893
     atom    3 type  1   force =     0.00000000    0.00029780  -13.84006884
     atom    4 type  1   force =    -0.00000000   -0.00029780  -13.84006886
     The core correction contribution to forces
     atom    1 type  1   force =     0.00000000    0.00000000    0.00000000
     atom    2 type  1   force =     0.00000000    0.00000000    0.00000000
     atom    3 type  1   force =     0.00000000    0.00000000    0.00000000
     atom    4 type  1   force =     0.00000000    0.00000000    0.00000000
     The Hubbard contrib.    to forces
     atom    1 type  1   force =     0.00000000    0.00000000    0.00000000
     atom    2 type  1   force =     0.00000000    0.00000000    0.00000000
     atom    3 type  1   force =     0.00000000    0.00000000    0.00000000
     atom    4 type  1   force =     0.00000000    0.00000000    0.00000000
     The SCF correction term to forces
     atom    1 type  1   force =    -0.00000000   -0.00000010   -0.00000168
     atom    2 type  1   force =     0.00000000    0.00000009   -0.00000168
     atom    3 type  1   force =     0.00000000   -0.00000001    0.00000105
     atom    4 type  1   force =    -0.00000000    0.00000002    0.00000106

     Total force =     0.003748     Total SCF correction =     0.000003


     entering subroutine stress ...

          total   stress  (Ry/bohr**3)                   (kbar)     P=   -5.04
  -0.00006583   0.00000000   0.00000000         -9.68      0.00      0.00
   0.00000000  -0.00006555  -0.00000000          0.00     -9.64     -0.00
   0.00000000  -0.00000000   0.00002867          0.00     -0.00      4.22

     kinetic stress (kbar)   3525.16      0.00      0.00
                                0.00   3525.04     -0.00
                                0.00     -0.00   4088.12

     local   stress (kbar)-111296.80      0.00     -0.00
                                0.00-111297.47      0.00
                               -0.00      0.00 113617.87

     nonloc. stress (kbar)   -152.55      0.00      0.00
                                0.00   -152.53     -0.00
                                0.00     -0.00   -151.51

     hartree stress (kbar)  54127.59     -0.00      0.00
                               -0.00  54127.69     -0.00
                                0.00     -0.00 -53782.97

     exc-cor stress (kbar)   -891.21      0.00     -0.00
                                0.00   -891.21     -0.00
                               -0.00     -0.00   -924.60

     corecor stress (kbar)      0.00      0.00      0.00
                                0.00      0.00      0.00
                                0.00      0.00      0.00

     ewald   stress (kbar)  54678.12      0.00     -0.00
                                0.00  54678.84      0.00
                               -0.00      0.00 -62842.69

     hubbard stress (kbar)      0.00      0.00      0.00
                                0.00      0.00      0.00
                                0.00      0.00      0.00

     london  stress (kbar)      0.00      0.00      0.00
                                0.00      0.00      0.00
                                0.00      0.00      0.00

     XDM     stress (kbar)      0.00      0.00      0.00
                                0.00      0.00      0.00
                                0.00      0.00      0.00

     dft-nl  stress (kbar)      0.00      0.00      0.00
                                0.00      0.00      0.00
                                0.00      0.00      0.00



     Writing output data file gra.spin.save

     init_run     :      2.90s CPU      2.93s WALL (       1 calls)
     electrons    :     70.21s CPU     70.58s WALL (       1 calls)
     forces       :      1.32s CPU      1.32s WALL (       1 calls)
     stress       :      3.46s CPU      3.47s WALL (       1 calls)

     Called by init_run:
     wfcinit      :      1.93s CPU      1.94s WALL (       1 calls)
     potinit      :      0.43s CPU      0.44s WALL (       1 calls)

     Called by electrons:
     c_bands      :     51.88s CPU     52.18s WALL (      13 calls)
     sum_band     :     11.26s CPU     11.32s WALL (      13 calls)
     v_of_rho     :      4.58s CPU      4.60s WALL (      14 calls)
     v_h          :      0.09s CPU      0.09s WALL (      14 calls)
     v_xc         :      4.49s CPU      4.51s WALL (      14 calls)
     newd         :      2.28s CPU      2.28s WALL (      14 calls)
     mix_rho      :      0.42s CPU      0.42s WALL (      13 calls)

     Called by c_bands:
     init_us_2    :      1.48s CPU      1.49s WALL (    2494 calls)
     cegterg      :     49.47s CPU     49.74s WALL (    1118 calls)

     Called by sum_band:
     sum_band:bec :      0.01s CPU      0.01s WALL (    1118 calls)
     addusdens    :      2.75s CPU      2.75s WALL (      13 calls)

     Called by *egterg:
     h_psi        :     32.33s CPU     32.55s WALL (    4112 calls)
     s_psi        :      4.75s CPU      4.76s WALL (    4112 calls)
     g_psi        :      0.22s CPU      0.22s WALL (    2908 calls)
     cdiaghg      :      0.92s CPU      0.93s WALL (    4026 calls)
     cegterg:over :      4.93s CPU      4.95s WALL (    2908 calls)
     cegterg:upda :      3.23s CPU      3.23s WALL (    2908 calls)
     cegterg:last :      1.79s CPU      1.80s WALL (    1123 calls)

     Called by h_psi:
     h_psi:vloc   :     21.93s CPU     22.11s WALL (    4112 calls)
     h_psi:vnl    :     10.15s CPU     10.20s WALL (    4112 calls)
     add_vuspsi   :      4.74s CPU      4.76s WALL (    4112 calls)

     General routines
     calbec       :      7.66s CPU      7.70s WALL (    5402 calls)
     fft          :      2.33s CPU      2.34s WALL (     437 calls)
     ffts         :      0.02s CPU      0.02s WALL (      54 calls)
     fftw         :     18.54s CPU     18.69s WALL (   83212 calls)
     interpolate  :      0.35s CPU      0.35s WALL (      54 calls)

     Parallel routines
     fft_scatter  :      3.44s CPU      3.47s WALL (   83703 calls)

     PWSCF        :  1m18.06s CPU     1m18.54s WALL


   This run was terminated on:  14: 3:16  16Apr2020            

=------------------------------------------------------------------------------=
   JOB DONE.
=------------------------------------------------------------------------------=
